 Entering Gaussian System, Link 0=g03
 Input=k01071_tips_Tv1.com
 Output=k01071_tips_Tv1.log
 Initial command:
 /apps/gaussian/g09_c01/g09/l1.exe /tmp/pbs.3764041.cx1b/Gau-27361.inp -scrdir=/tmp/pbs.3764041.cx1b/
 Entering Link 1 = /apps/gaussian/g09_c01/g09/l1.exe PID=     27369.
  
 Copyright (c) 1988,1990,1992,1993,1995,1998,2003,2009,2011,
            Gaussian, Inc.  All Rights Reserved.
  
 This is part of the Gaussian(R) 09 program.  It is based on
 the Gaussian(R) 03 system (copyright 2003, Gaussian, Inc.),
 the Gaussian(R) 98 system (copyright 1998, Gaussian, Inc.),
 the Gaussian(R) 94 system (copyright 1995, Gaussian, Inc.),
 the Gaussian 92(TM) system (copyright 1992, Gaussian, Inc.),
 the Gaussian 90(TM) system (copyright 1990, Gaussian, Inc.),
 the Gaussian 88(TM) system (copyright 1988, Gaussian, Inc.),
 the Gaussian 86(TM) system (copyright 1986, Carnegie Mellon
 University), and the Gaussian 82(TM) system (copyright 1983,
 Carnegie Mellon University). Gaussian is a federally registered
 trademark of Gaussian, Inc.
  
 This software contains proprietary and confidential information,
 including trade secrets, belonging to Gaussian, Inc.
  
 This software is provided under written license and may be
 used, copied, transmitted, or stored only in accord with that
 written license.
  
 The following legend is applicable only to US Government
 contracts under FAR:
  
                    RESTRICTED RIGHTS LEGEND
  
 Use, reproduction and disclosure by the US Government is
 subject to restrictions as set forth in subparagraphs (a)
 and (c) of the Commercial Computer Software - Restricted
 Rights clause in FAR 52.227-19.
  
 Gaussian, Inc.
 340 Quinnipiac St., Bldg. 40, Wallingford CT 06492
  
  
 ---------------------------------------------------------------
 Warning -- This program may not be used in any manner that
 competes with the business of Gaussian, Inc. or will provide
 assistance to any competitor of Gaussian, Inc.  The licensee
 of this program is prohibited from giving any competitor of
 Gaussian, Inc. access to this program.  By using this program,
 the user acknowledges that Gaussian, Inc. is engaged in the
 business of creating and licensing software in the field of
 computational chemistry and represents and warrants to the
 licensee that it is not a competitor of Gaussian, Inc. and that
 it will not use this program in any manner prohibited above.
 ---------------------------------------------------------------
  

 Cite this work as:
 Gaussian 09, Revision C.01,
 M. J. Frisch, G. W. Trucks, H. B. Schlegel, G. E. Scuseria, 
 M. A. Robb, J. R. Cheeseman, G. Scalmani, V. Barone, B. Mennucci, 
 G. A. Petersson, H. Nakatsuji, M. Caricato, X. Li, H. P. Hratchian, 
 A. F. Izmaylov, J. Bloino, G. Zheng, J. L. Sonnenberg, M. Hada, 
 M. Ehara, K. Toyota, R. Fukuda, J. Hasegawa, M. Ishida, T. Nakajima, 
 Y. Honda, O. Kitao, H. Nakai, T. Vreven, J. A. Montgomery, Jr., 
 J. E. Peralta, F. Ogliaro, M. Bearpark, J. J. Heyd, E. Brothers, 
 K. N. Kudin, V. N. Staroverov, T. Keith, R. Kobayashi, J. Normand, 
 K. Raghavachari, A. Rendell, J. C. Burant, S. S. Iyengar, J. Tomasi, 
 M. Cossi, N. Rega, J. M. Millam, M. Klene, J. E. Knox, J. B. Cross, 
 V. Bakken, C. Adamo, J. Jaramillo, R. Gomperts, R. E. Stratmann, 
 O. Yazyev, A. J. Austin, R. Cammi, C. Pomelli, J. W. Ochterski, 
 R. L. Martin, K. Morokuma, V. G. Zakrzewski, G. A. Voth, 
 P. Salvador, J. J. Dannenberg, S. Dapprich, A. D. Daniels, 
 O. Farkas, J. B. Foresman, J. V. Ortiz, J. Cioslowski, 
 and D. J. Fox, Gaussian, Inc., Wallingford CT, 2010.
 
 ******************************************
 Gaussian 09:  EM64L-G09RevC.01 23-Sep-2011
                 1-Feb-2013 
 ******************************************
 %chk=k01071_tips_Tv1.chk
 %Mem=8Gb
 %nproc=8
 Will use up to    8 processors via shared memory.
 ----------------------------------------------------------------
 #p scf=verytight b3lyp/6-31g(d,p) td(singlets,nstates=25) nosymm
 ----------------------------------------------------------------
 1/38=1/1;
 2/12=2,15=1,17=6,18=5,40=1/2;
 3/5=1,6=6,7=101,11=2,16=1,25=1,30=1,74=-5/1,2,8,3;
 4//1;
 5/5=2,17=3,38=5/2;
 8/6=1,10=2,108=25/1;
 9/41=25,42=1,48=1/14;
 6/7=2,8=2,9=2,10=2/1;
 99/5=1,9=1/99;
 Leave Link    1 at Fri Feb  1 21:50:32 2013, MaxMem= 1073741824 cpu:       0.2
 (Enter /apps/gaussian/g09_c01/g09/l101.exe)
 ----------------
 CSD ENTRY k01071
 ----------------
 Charge =  0 Multiplicity = 1
 Symbolic Z-Matrix:
 Si(PDBName=Si,ResName=UNK,ResNum=1)  9.41188   10.36196   8.66644 
 C(PDBName=C1,ResName=UNK,ResNum=1)  7.45586   7.4104    5.97347 
 C(PDBName=C2,ResName=UNK,ResNum=1)  8.22032   6.21507   5.87145 
 C(PDBName=C3,ResName=UNK,ResNum=1)  9.39911   6.03037   6.61804 
 H(PDBName=H3,ResName=UNK,ResNum=1)  9.68599   6.72115   7.20437 
 C(PDBName=C4,ResName=UNK,ResNum=1)  10.15409   4.87258   6.52522 
 C(PDBName=C5,ResName=UNK,ResNum=1)  11.36349   4.69895   7.27124 
 H(PDBName=H5,ResName=UNK,ResNum=1)  11.65798   5.38907   7.85376 
 C(PDBName=C6,ResName=UNK,ResNum=1)  12.09386   3.56168   7.15674 
 H(PDBName=H6,ResName=UNK,ResNum=1)  12.89281   3.46263   7.66055 
 C(PDBName=C7,ResName=UNK,ResNum=1)  11.67288   2.51587   6.28835 
 H(PDBName=H7,ResName=UNK,ResNum=1)  12.18792   1.72016   6.22635 
 C(PDBName=C8,ResName=UNK,ResNum=1)  10.54607   2.64176   5.55232 
 H(PDBName=H8,ResName=UNK,ResNum=1)  10.28816   1.93736   4.96925 
 C(PDBName=C9,ResName=UNK,ResNum=1)  9.73478   3.82152   5.63697 
 C(PDBName=C10,ResName=UNK,ResNum=1)  8.57424   3.98941   4.89823 
 H(PDBName=H10,ResName=UNK,ResNum=1)  8.29366   3.29195   4.31696 
 C(PDBName=C11,ResName=UNK,ResNum=1)  7.79281   5.16314   4.98219 
 C(PDBName=C12,ResName=UNK,ResNum=1)  7.91749   8.43899   6.85229 
 C(PDBName=C13,ResName=UNK,ResNum=1)  8.39889   9.26264   7.5939 
 C(PDBName=C14,ResName=UNK,ResNum=1)  10.45271   11.4444   7.58129 
 H(PDBName=H14A,ResName=UNK,ResNum=1)  11.11233   10.89405   7.10961 
 H(PDBName=H14B,ResName=UNK,ResNum=1)  10.91687   12.10872   8.13235 
 H(PDBName=H14C,ResName=UNK,ResNum=1)  9.88165   11.90064   6.92987 
 C(PDBName=C15,ResName=UNK,ResNum=1)  10.53534   9.26828   9.66183 
 H(PDBName=H15A,ResName=UNK,ResNum=1)  9.99987   8.71999   10.27312 
 H(PDBName=H15B,ResName=UNK,ResNum=1)  11.15721   9.8223    10.17862 
 H(PDBName=H15C,ResName=UNK,ResNum=1)  11.04153   8.68508   9.05907 
 C(PDBName=C16,ResName=UNK,ResNum=1)  8.31856   11.37181   9.77123 
 H(PDBName=H16A,ResName=UNK,ResNum=1)  7.7416    11.94541   9.22433 
 H(PDBName=H16B,ResName=UNK,ResNum=1)  8.8717    11.92874   10.35918 
 H(PDBName=H16C,ResName=UNK,ResNum=1)  7.76267   10.77446   10.31516 
 Si(PDBName=Si,ResName=UNK,ResNum=1)  4.65373   2.38      1.5293 
 C(PDBName=C1,ResName=UNK,ResNum=1)  6.60975   5.33157   4.22226 
 C(PDBName=C2,ResName=UNK,ResNum=1)  5.84529   6.52689   4.32428 
 C(PDBName=C3,ResName=UNK,ResNum=1)  4.6665    6.7116    3.57769 
 H(PDBName=H3,ResName=UNK,ResNum=1)  4.37962   6.02082   2.99136 
 C(PDBName=C4,ResName=UNK,ResNum=1)  3.91152   7.86938   3.67051 
 C(PDBName=C5,ResName=UNK,ResNum=1)  2.70213   8.04302   2.92449 
 H(PDBName=H5,ResName=UNK,ResNum=1)  2.40763   7.35289   2.34197 
 C(PDBName=C6,ResName=UNK,ResNum=1)  1.97176   9.18028   3.03899 
 H(PDBName=H6,ResName=UNK,ResNum=1)  1.17281   9.27933   2.53519 
 C(PDBName=C7,ResName=UNK,ResNum=1)  2.39273   10.22609   3.90738 
 H(PDBName=H7,ResName=UNK,ResNum=1)  1.8777    11.02181   3.96938 
 C(PDBName=C8,ResName=UNK,ResNum=1)  3.51954   10.1002   4.64341 
 H(PDBName=H8,ResName=UNK,ResNum=1)  3.77746   10.80461   5.22648 
 C(PDBName=C9,ResName=UNK,ResNum=1)  4.33084   8.92044   4.55876 
 C(PDBName=C10,ResName=UNK,ResNum=1)  5.49138   8.75255   5.29751 
 H(PDBName=H10,ResName=UNK,ResNum=1)  5.77195   9.45001   5.87877 
 C(PDBName=C11,ResName=UNK,ResNum=1)  6.2728    7.57882   5.21355 
 C(PDBName=C12,ResName=UNK,ResNum=1)  6.14812   4.30298   3.34344 
 C(PDBName=C13,ResName=UNK,ResNum=1)  5.66672   3.47932   2.60183 
 C(PDBName=C14,ResName=UNK,ResNum=1)  3.6129    1.29756   2.61444 
 H(PDBName=H14A,ResName=UNK,ResNum=1)  2.95329   1.84792   3.08612 
 H(PDBName=H14B,ResName=UNK,ResNum=1)  3.14874   0.63324   2.06338 
 H(PDBName=H14C,ResName=UNK,ResNum=1)  4.18397   0.84132   3.26586 
 C(PDBName=C15,ResName=UNK,ResNum=1)  3.53027   3.47369   0.53391 
 H(PDBName=H15A,ResName=UNK,ResNum=1)  4.06574   4.02198  -0.07739 
 H(PDBName=H15B,ResName=UNK,ResNum=1)  2.90841   2.91966   0.01711 
 H(PDBName=H15C,ResName=UNK,ResNum=1)  3.02408   4.05688   1.13667 
 C(PDBName=C16,ResName=UNK,ResNum=1)  5.74706   1.37015   0.4245 
 H(PDBName=H16A,ResName=UNK,ResNum=1)  6.32401   0.79655   0.9714 
 H(PDBName=H16B,ResName=UNK,ResNum=1)  5.19392   0.81322  -0.16344 
 H(PDBName=H16C,ResName=UNK,ResNum=1)  6.30294   1.9675   -0.11943 
 Si(PDBName=Si,ResName=UNK,ResNum=1)  15.2449   10.362    8.66644 
 C(PDBName=C1,ResName=UNK,ResNum=1)  13.2889   7.4104    5.97347 
 C(PDBName=C2,ResName=UNK,ResNum=1)  14.0533   6.21507   5.87145 
 C(PDBName=C3,ResName=UNK,ResNum=1)  15.2321   6.03037   6.61804 
 H(PDBName=H3,ResName=UNK,ResNum=1)  15.519    6.72115   7.20437 
 C(PDBName=C4,ResName=UNK,ResNum=1)  15.9871   4.87258   6.52522 
 C(PDBName=C5,ResName=UNK,ResNum=1)  17.1965   4.69895   7.27124 
 H(PDBName=H5,ResName=UNK,ResNum=1)  17.491    5.38907   7.85376 
 C(PDBName=C6,ResName=UNK,ResNum=1)  17.9269   3.56168   7.15674 
 H(PDBName=H6,ResName=UNK,ResNum=1)  18.7258   3.46263   7.66055 
 C(PDBName=C7,ResName=UNK,ResNum=1)  17.5059   2.51587   6.28835 
 H(PDBName=H7,ResName=UNK,ResNum=1)  18.0209   1.72016   6.22635 
 C(PDBName=C8,ResName=UNK,ResNum=1)  16.3791   2.64176   5.55232 
 H(PDBName=H8,ResName=UNK,ResNum=1)  16.1212   1.93736   4.96925 
 C(PDBName=C9,ResName=UNK,ResNum=1)  15.5678   3.82152   5.63697 
 C(PDBName=C10,ResName=UNK,ResNum=1)  14.4072   3.98941   4.89823 
 H(PDBName=H10,ResName=UNK,ResNum=1)  14.1267   3.29195   4.31696 
 C(PDBName=C11,ResName=UNK,ResNum=1)  13.6258   5.16314   4.98219 
 C(PDBName=C12,ResName=UNK,ResNum=1)  13.7505   8.43899   6.85229 
 C(PDBName=C13,ResName=UNK,ResNum=1)  14.2319   9.26264   7.5939 
 C(PDBName=C14,ResName=UNK,ResNum=1)  16.2857   11.4444   7.58129 
 H(PDBName=H14A,ResName=UNK,ResNum=1)  16.9453   10.894    7.10961 
 H(PDBName=H14B,ResName=UNK,ResNum=1)  16.7499   12.1087   8.13235 
 H(PDBName=H14C,ResName=UNK,ResNum=1)  15.7146   11.9006   6.92987 
 C(PDBName=C15,ResName=UNK,ResNum=1)  16.3683   9.26828   9.66183 
 H(PDBName=H15A,ResName=UNK,ResNum=1)  15.8329   8.71999   10.2731 
 H(PDBName=H15B,ResName=UNK,ResNum=1)  16.9902   9.8223    10.1786 
 H(PDBName=H15C,ResName=UNK,ResNum=1)  16.8745   8.68508   9.05907 
 C(PDBName=C16,ResName=UNK,ResNum=1)  14.1516   11.3718   9.77123 
 H(PDBName=H16A,ResName=UNK,ResNum=1)  13.5746   11.9454   9.22433 
 H(PDBName=H16B,ResName=UNK,ResNum=1)  14.7047   11.9287   10.3592 
 H(PDBName=H16C,ResName=UNK,ResNum=1)  13.5957   10.7745   10.3152 
 Si(PDBName=Si,ResName=UNK,ResNum=1)  10.4867   2.38      1.5293 
 C(PDBName=C1,ResName=UNK,ResNum=1)  12.4428   5.33157   4.22226 
 C(PDBName=C2,ResName=UNK,ResNum=1)  11.6783   6.52689   4.32428 
 C(PDBName=C3,ResName=UNK,ResNum=1)  10.4995   6.7116    3.57769 
 H(PDBName=H3,ResName=UNK,ResNum=1)  10.2126   6.02082   2.99136 
 C(PDBName=C4,ResName=UNK,ResNum=1)  9.74452   7.86938   3.67051 
 C(PDBName=C5,ResName=UNK,ResNum=1)  8.53513   8.04302   2.92449 
 H(PDBName=H5,ResName=UNK,ResNum=1)  8.24063   7.35289   2.34197 
 C(PDBName=C6,ResName=UNK,ResNum=1)  7.80476   9.18028   3.03899 
 H(PDBName=H6,ResName=UNK,ResNum=1)  7.00581   9.27933   2.53519 
 C(PDBName=C7,ResName=UNK,ResNum=1)  8.22573   10.2261   3.90738 
 H(PDBName=H7,ResName=UNK,ResNum=1)  7.7107    11.0218   3.96938 
 C(PDBName=C8,ResName=UNK,ResNum=1)  9.35254   10.1002   4.64341 
 H(PDBName=H8,ResName=UNK,ResNum=1)  9.61046   10.8046   5.22648 
 C(PDBName=C9,ResName=UNK,ResNum=1)  10.1638   8.92044   4.55876 
 C(PDBName=C10,ResName=UNK,ResNum=1)  11.3244   8.75255   5.29751 
 H(PDBName=H10,ResName=UNK,ResNum=1)  11.605    9.45001   5.87877 
 C(PDBName=C11,ResName=UNK,ResNum=1)  12.1058   7.57882   5.21355 
 C(PDBName=C12,ResName=UNK,ResNum=1)  11.9811   4.30298   3.34344 
 C(PDBName=C13,ResName=UNK,ResNum=1)  11.4997   3.47932   2.60183 
 C(PDBName=C14,ResName=UNK,ResNum=1)  9.4459    1.29756   2.61444 
 H(PDBName=H14A,ResName=UNK,ResNum=1)  8.78629   1.84792   3.08612 
 H(PDBName=H14B,ResName=UNK,ResNum=1)  8.98174   0.63324   2.06338 
 H(PDBName=H14C,ResName=UNK,ResNum=1)  10.017    0.84133   3.26586 
 C(PDBName=C15,ResName=UNK,ResNum=1)  9.36327   3.47369   0.53391 
 H(PDBName=H15A,ResName=UNK,ResNum=1)  9.89874   4.02198  -0.07739 
 H(PDBName=H15B,ResName=UNK,ResNum=1)  8.74141   2.91966   0.01711 
 H(PDBName=H15C,ResName=UNK,ResNum=1)  8.85708   4.05688   1.13667 
 C(PDBName=C16,ResName=UNK,ResNum=1)  11.5801   1.37015   0.4245 
 H(PDBName=H16A,ResName=UNK,ResNum=1)  12.157    0.79655   0.9714 
 H(PDBName=H16B,ResName=UNK,ResNum=1)  11.0269   0.81322  -0.16344 
 H(PDBName=H16C,ResName=UNK,ResNum=1)  12.1359   1.9675   -0.11943 
 
 NAtoms=    128 NQM=        0 NQMF=       0 NMMI=    128 NMMIF=      0
                NMic=       0 NMicF=      0.
                    Isotopes and Nuclear Properties:
 (Nuclear quadrupole moments (NQMom) in fm**2, nuclear magnetic moments (NMagM)
  in nuclear magnetons)

  Atom         1           2           3           4           5           6           7           8           9          10
 IAtWgt=          28          12          12          12           1          12          12           1          12           1
 AtmWgt=  27.9769284  12.0000000  12.0000000  12.0000000   1.0078250  12.0000000  12.0000000   1.0078250  12.0000000   1.0078250
 NucSpn=           0           0           0           0           1           0           0           1           0           1
 AtZEff=   0.0000000   0.0000000   0.0000000   0.0000000   0.0000000   0.0000000   0.0000000   0.0000000   0.0000000   0.0000000
 NQMom=    0.0000000   0.0000000   0.0000000   0.0000000   0.0000000   0.0000000   0.0000000   0.0000000   0.0000000   0.0000000
 NMagM=    0.0000000   0.0000000   0.0000000   0.0000000   2.7928460   0.0000000   0.0000000   2.7928460   0.0000000   2.7928460

  Atom        11          12          13          14          15          16          17          18          19          20
 IAtWgt=          12           1          12           1          12          12           1          12          12          12
 AtmWgt=  12.0000000   1.0078250  12.0000000   1.0078250  12.0000000  12.0000000   1.0078250  12.0000000  12.0000000  12.0000000
 NucSpn=           0           1           0           1           0           0           1           0           0           0
 AtZEff=   0.0000000   0.0000000   0.0000000   0.0000000   0.0000000   0.0000000   0.0000000   0.0000000   0.0000000   0.0000000
 NQMom=    0.0000000   0.0000000   0.0000000   0.0000000   0.0000000   0.0000000   0.0000000   0.0000000   0.0000000   0.0000000
 NMagM=    0.0000000   2.7928460   0.0000000   2.7928460   0.0000000   0.0000000   2.7928460   0.0000000   0.0000000   0.0000000

  Atom        21          22          23          24          25          26          27          28          29          30
 IAtWgt=          12           1           1           1          12           1           1           1          12           1
 AtmWgt=  12.0000000   1.0078250   1.0078250   1.0078250  12.0000000   1.0078250   1.0078250   1.0078250  12.0000000   1.0078250
 NucSpn=           0           1           1           1           0           1           1           1           0           1
 AtZEff=   0.0000000   0.0000000   0.0000000   0.0000000   0.0000000   0.0000000   0.0000000   0.0000000   0.0000000   0.0000000
 NQMom=    0.0000000   0.0000000   0.0000000   0.0000000   0.0000000   0.0000000   0.0000000   0.0000000   0.0000000   0.0000000
 NMagM=    0.0000000   2.7928460   2.7928460   2.7928460   0.0000000   2.7928460   2.7928460   2.7928460   0.0000000   2.7928460

  Atom        31          32          33          34          35          36          37          38          39          40
 IAtWgt=           1           1          28          12          12          12           1          12          12           1
 AtmWgt=   1.0078250   1.0078250  27.9769284  12.0000000  12.0000000  12.0000000   1.0078250  12.0000000  12.0000000   1.0078250
 NucSpn=           1           1           0           0           0           0           1           0           0           1
 AtZEff=   0.0000000   0.0000000   0.0000000   0.0000000   0.0000000   0.0000000   0.0000000   0.0000000   0.0000000   0.0000000
 NQMom=    0.0000000   0.0000000   0.0000000   0.0000000   0.0000000   0.0000000   0.0000000   0.0000000   0.0000000   0.0000000
 NMagM=    2.7928460   2.7928460   0.0000000   0.0000000   0.0000000   0.0000000   2.7928460   0.0000000   0.0000000   2.7928460

  Atom        41          42          43          44          45          46          47          48          49          50
 IAtWgt=          12           1          12           1          12           1          12          12           1          12
 AtmWgt=  12.0000000   1.0078250  12.0000000   1.0078250  12.0000000   1.0078250  12.0000000  12.0000000   1.0078250  12.0000000
 NucSpn=           0           1           0           1           0           1           0           0           1           0
 AtZEff=   0.0000000   0.0000000   0.0000000   0.0000000   0.0000000   0.0000000   0.0000000   0.0000000   0.0000000   0.0000000
 NQMom=    0.0000000   0.0000000   0.0000000   0.0000000   0.0000000   0.0000000   0.0000000   0.0000000   0.0000000   0.0000000
 NMagM=    0.0000000   2.7928460   0.0000000   2.7928460   0.0000000   2.7928460   0.0000000   0.0000000   2.7928460   0.0000000

  Atom        51          52          53          54          55          56          57          58          59          60
 IAtWgt=          12          12          12           1           1           1          12           1           1           1
 AtmWgt=  12.0000000  12.0000000  12.0000000   1.0078250   1.0078250   1.0078250  12.0000000   1.0078250   1.0078250   1.0078250
 NucSpn=           0           0           0           1           1           1           0           1           1           1
 AtZEff=   0.0000000   0.0000000   0.0000000   0.0000000   0.0000000   0.0000000   0.0000000   0.0000000   0.0000000   0.0000000
 NQMom=    0.0000000   0.0000000   0.0000000   0.0000000   0.0000000   0.0000000   0.0000000   0.0000000   0.0000000   0.0000000
 NMagM=    0.0000000   0.0000000   0.0000000   2.7928460   2.7928460   2.7928460   0.0000000   2.7928460   2.7928460   2.7928460

  Atom        61          62          63          64          65          66          67          68          69          70
 IAtWgt=          12           1           1           1          28          12          12          12           1          12
 AtmWgt=  12.0000000   1.0078250   1.0078250   1.0078250  27.9769284  12.0000000  12.0000000  12.0000000   1.0078250  12.0000000
 NucSpn=           0           1           1           1           0           0           0           0           1           0
 AtZEff=   0.0000000   0.0000000   0.0000000   0.0000000   0.0000000   0.0000000   0.0000000   0.0000000   0.0000000   0.0000000
 NQMom=    0.0000000   0.0000000   0.0000000   0.0000000   0.0000000   0.0000000   0.0000000   0.0000000   0.0000000   0.0000000
 NMagM=    0.0000000   2.7928460   2.7928460   2.7928460   0.0000000   0.0000000   0.0000000   0.0000000   2.7928460   0.0000000

  Atom        71          72          73          74          75          76          77          78          79          80
 IAtWgt=          12           1          12           1          12           1          12           1          12          12
 AtmWgt=  12.0000000   1.0078250  12.0000000   1.0078250  12.0000000   1.0078250  12.0000000   1.0078250  12.0000000  12.0000000
 NucSpn=           0           1           0           1           0           1           0           1           0           0
 AtZEff=   0.0000000   0.0000000   0.0000000   0.0000000   0.0000000   0.0000000   0.0000000   0.0000000   0.0000000   0.0000000
 NQMom=    0.0000000   0.0000000   0.0000000   0.0000000   0.0000000   0.0000000   0.0000000   0.0000000   0.0000000   0.0000000
 NMagM=    0.0000000   2.7928460   0.0000000   2.7928460   0.0000000   2.7928460   0.0000000   2.7928460   0.0000000   0.0000000

  Atom        81          82          83          84          85          86          87          88          89          90
 IAtWgt=           1          12          12          12          12           1           1           1          12           1
 AtmWgt=   1.0078250  12.0000000  12.0000000  12.0000000  12.0000000   1.0078250   1.0078250   1.0078250  12.0000000   1.0078250
 NucSpn=           1           0           0           0           0           1           1           1           0           1
 AtZEff=   0.0000000   0.0000000   0.0000000   0.0000000   0.0000000   0.0000000   0.0000000   0.0000000   0.0000000   0.0000000
 NQMom=    0.0000000   0.0000000   0.0000000   0.0000000   0.0000000   0.0000000   0.0000000   0.0000000   0.0000000   0.0000000
 NMagM=    2.7928460   0.0000000   0.0000000   0.0000000   0.0000000   2.7928460   2.7928460   2.7928460   0.0000000   2.7928460

  Atom        91          92          93          94          95          96          97          98          99         100
 IAtWgt=           1           1          12           1           1           1          28          12          12          12
 AtmWgt=   1.0078250   1.0078250  12.0000000   1.0078250   1.0078250   1.0078250  27.9769284  12.0000000  12.0000000  12.0000000
 NucSpn=           1           1           0           1           1           1           0           0           0           0
 AtZEff=   0.0000000   0.0000000   0.0000000   0.0000000   0.0000000   0.0000000   0.0000000   0.0000000   0.0000000   0.0000000
 NQMom=    0.0000000   0.0000000   0.0000000   0.0000000   0.0000000   0.0000000   0.0000000   0.0000000   0.0000000   0.0000000
 NMagM=    2.7928460   2.7928460   0.0000000   2.7928460   2.7928460   2.7928460   0.0000000   0.0000000   0.0000000   0.0000000

  Atom       101         102         103         104         105         106         107         108         109         110
 IAtWgt=           1          12          12           1          12           1          12           1          12           1
 AtmWgt=   1.0078250  12.0000000  12.0000000   1.0078250  12.0000000   1.0078250  12.0000000   1.0078250  12.0000000   1.0078250
 NucSpn=           1           0           0           1           0           1           0           1           0           1
 AtZEff=   0.0000000   0.0000000   0.0000000   0.0000000   0.0000000   0.0000000   0.0000000   0.0000000   0.0000000   0.0000000
 NQMom=    0.0000000   0.0000000   0.0000000   0.0000000   0.0000000   0.0000000   0.0000000   0.0000000   0.0000000   0.0000000
 NMagM=    2.7928460   0.0000000   0.0000000   2.7928460   0.0000000   2.7928460   0.0000000   2.7928460   0.0000000   2.7928460

  Atom       111         112         113         114         115         116         117         118         119         120
 IAtWgt=          12          12           1          12          12          12          12           1           1           1
 AtmWgt=  12.0000000  12.0000000   1.0078250  12.0000000  12.0000000  12.0000000  12.0000000   1.0078250   1.0078250   1.0078250
 NucSpn=           0           0           1           0           0           0           0           1           1           1
 AtZEff=   0.0000000   0.0000000   0.0000000   0.0000000   0.0000000   0.0000000   0.0000000   0.0000000   0.0000000   0.0000000
 NQMom=    0.0000000   0.0000000   0.0000000   0.0000000   0.0000000   0.0000000   0.0000000   0.0000000   0.0000000   0.0000000
 NMagM=    0.0000000   0.0000000   2.7928460   0.0000000   0.0000000   0.0000000   0.0000000   2.7928460   2.7928460   2.7928460

  Atom       121         122         123         124         125         126         127         128
 IAtWgt=          12           1           1           1          12           1           1           1
 AtmWgt=  12.0000000   1.0078250   1.0078250   1.0078250  12.0000000   1.0078250   1.0078250   1.0078250
 NucSpn=           0           1           1           1           0           1           1           1
 AtZEff=   0.0000000   0.0000000   0.0000000   0.0000000   0.0000000   0.0000000   0.0000000   0.0000000
 NQMom=    0.0000000   0.0000000   0.0000000   0.0000000   0.0000000   0.0000000   0.0000000   0.0000000
 NMagM=    0.0000000   2.7928460   2.7928460   2.7928460   0.0000000   2.7928460   2.7928460   2.7928460
 Residue   1 PDB Number     1_0 UNK charge    0.00000000 ave dist        0.000
 Leave Link  101 at Fri Feb  1 21:50:32 2013, MaxMem= 1073741824 cpu:       0.9
 (Enter /apps/gaussian/g09_c01/g09/l202.exe)
 Symmetry turned off by external request.
 Stoichiometry    C64H60Si4
 Framework group  C1[X(C64H60Si4)]
 Deg. of freedom   378
 Full point group                 C1      NOp   1
                          Input orientation:                          
 ---------------------------------------------------------------------
 Center     Atomic      Atomic             Coordinates (Angstroms)
 Number     Number       Type             X           Y           Z
 ---------------------------------------------------------------------
      1         14           0        9.411885   10.361962    8.666436
      2          6           0        7.455860    7.410396    5.973473
      3          6           0        8.220324    6.215071    5.871454
      4          6           0        9.399112    6.030366    6.618038
      5          1           0        9.685989    6.721148    7.204372
      6          6           0       10.154089    4.872582    6.525225
      7          6           0       11.363489    4.698947    7.271242
      8          1           0       11.657981    5.389074    7.853757
      9          6           0       12.093855    3.561679    7.156741
     10          1           0       12.892806    3.462628    7.660547
     11          6           0       11.672880    2.515872    6.288350
     12          1           0       12.187918    1.720156    6.226354
     13          6           0       10.546071    2.641758    5.552325
     14          1           0       10.288157    1.937357    4.969253
     15          6           0        9.734779    3.821518    5.636969
     16          6           0        8.574237    3.989412    4.898226
     17          1           0        8.293660    3.291948    4.316957
     18          6           0        7.792815    5.163143    4.982187
     19          6           0        7.917490    8.438985    6.852295
     20          6           0        8.398891    9.262639    7.593898
     21          6           0       10.452715   11.444404    7.581294
     22          1           0       11.112328   10.894048    7.109611
     23          1           0       10.916875   12.108722    8.132352
     24          1           0        9.881648   11.900638    6.929871
     25          6           0       10.535343    9.268278    9.661826
     26          1           0        9.999874    8.719986   10.273119
     27          1           0       11.157209    9.822301   10.178620
     28          1           0       11.041535    8.685081    9.059066
     29          6           0        8.318558   11.371812    9.771234
     30          1           0        7.741603   11.945414    9.224329
     31          1           0        8.871696   11.928741   10.359175
     32          1           0        7.762672   10.774464   10.315164
     33         14           0        4.653730    2.380001    1.529296
     34          6           0        6.609754    5.331567    4.222259
     35          6           0        5.845290    6.526892    4.324277
     36          6           0        4.666502    6.711597    3.577694
     37          1           0        4.379625    6.020815    2.991360
     38          6           0        3.911525    7.869381    3.670507
     39          6           0        2.702125    8.043015    2.924489
     40          1           0        2.407633    7.352889    2.341975
     41          6           0        1.971759    9.180284    3.038991
     42          1           0        1.172809    9.279335    2.535185
     43          6           0        2.392734   10.226091    3.907382
     44          1           0        1.877697   11.021807    3.969378
     45          6           0        3.519543   10.100205    4.643407
     46          1           0        3.777458   10.804606    5.226478
     47          6           0        4.330835    8.920445    4.558763
     48          6           0        5.491377    8.752550    5.297506
     49          1           0        5.771955    9.450015    5.878775
     50          6           0        6.272800    7.578820    5.213545
     51          6           0        6.148124    4.302978    3.343437
     52          6           0        5.666724    3.479324    2.601833
     53          6           0        3.612900    1.297558    2.614438
     54          1           0        2.953286    1.847915    3.086121
     55          1           0        3.148739    0.633240    2.063380
     56          1           0        4.183966    0.841325    3.265861
     57          6           0        3.530271    3.473685    0.533905
     58          1           0        4.065740    4.021976   -0.077387
     59          1           0        2.908406    2.919662    0.017112
     60          1           0        3.024080    4.056882    1.136666
     61          6           0        5.747057    1.370150    0.424498
     62          1           0        6.324012    0.796549    0.971403
     63          1           0        5.193919    0.813222   -0.163444
     64          1           0        6.302942    1.967498   -0.119433
     65         14           0       15.244900   10.362000    8.666440
     66          6           0       13.288900    7.410400    5.973470
     67          6           0       14.053300    6.215070    5.871450
     68          6           0       15.232100    6.030370    6.618040
     69          1           0       15.519000    6.721150    7.204370
     70          6           0       15.987100    4.872580    6.525220
     71          6           0       17.196500    4.698950    7.271240
     72          1           0       17.491000    5.389070    7.853760
     73          6           0       17.926900    3.561680    7.156740
     74          1           0       18.725800    3.462630    7.660550
     75          6           0       17.505900    2.515870    6.288350
     76          1           0       18.020900    1.720160    6.226350
     77          6           0       16.379100    2.641760    5.552320
     78          1           0       16.121200    1.937360    4.969250
     79          6           0       15.567800    3.821520    5.636970
     80          6           0       14.407200    3.989410    4.898230
     81          1           0       14.126700    3.291950    4.316960
     82          6           0       13.625800    5.163140    4.982190
     83          6           0       13.750500    8.438990    6.852290
     84          6           0       14.231900    9.262640    7.593900
     85          6           0       16.285700   11.444400    7.581290
     86          1           0       16.945300   10.894000    7.109610
     87          1           0       16.749900   12.108700    8.132350
     88          1           0       15.714600   11.900600    6.929870
     89          6           0       16.368300    9.268280    9.661830
     90          1           0       15.832900    8.719990   10.273100
     91          1           0       16.990200    9.822300   10.178600
     92          1           0       16.874500    8.685080    9.059070
     93          6           0       14.151600   11.371800    9.771230
     94          1           0       13.574600   11.945400    9.224330
     95          1           0       14.704700   11.928700   10.359200
     96          1           0       13.595700   10.774500   10.315200
     97         14           0       10.486700    2.380000    1.529300
     98          6           0       12.442800    5.331570    4.222260
     99          6           0       11.678300    6.526890    4.324280
    100          6           0       10.499500    6.711600    3.577690
    101          1           0       10.212600    6.020820    2.991360
    102          6           0        9.744520    7.869380    3.670510
    103          6           0        8.535130    8.043020    2.924490
    104          1           0        8.240630    7.352890    2.341970
    105          6           0        7.804760    9.180280    3.038990
    106          1           0        7.005810    9.279330    2.535190
    107          6           0        8.225730   10.226100    3.907380
    108          1           0        7.710700   11.021800    3.969380
    109          6           0        9.352540   10.100200    4.643410
    110          1           0        9.610460   10.804600    5.226480
    111          6           0       10.163800    8.920440    4.558760
    112          6           0       11.324400    8.752550    5.297510
    113          1           0       11.605000    9.450010    5.878770
    114          6           0       12.105800    7.578820    5.213550
    115          6           0       11.981100    4.302980    3.343440
    116          6           0       11.499700    3.479320    2.601830
    117          6           0        9.445900    1.297560    2.614440
    118          1           0        8.786290    1.847920    3.086120
    119          1           0        8.981740    0.633240    2.063380
    120          1           0       10.017000    0.841325    3.265860
    121          6           0        9.363270    3.473690    0.533905
    122          1           0        9.898740    4.021980   -0.077387
    123          1           0        8.741410    2.919660    0.017112
    124          1           0        8.857080    4.056880    1.136670
    125          6           0       11.580100    1.370150    0.424498
    126          1           0       12.157000    0.796549    0.971403
    127          1           0       11.026900    0.813222   -0.163444
    128          1           0       12.135900    1.967500   -0.119433
 ---------------------------------------------------------------------
 Rotational constants (GHZ):      0.0408024      0.0256968      0.0174831
 Leave Link  202 at Fri Feb  1 21:50:32 2013, MaxMem= 1073741824 cpu:       0.1
 (Enter /apps/gaussian/g09_c01/g09/l301.exe)
 Standard basis: 6-31G(d,p) (6D, 7F)
 Ernie: Thresh=  0.10000D-02 Tol=  0.10000D-05 Strict=F.
 Integral buffers will be    131072 words long.
 Raffenetti 2 integral format.
 Two-electron integral symmetry is turned off.
  1336 basis functions,  2420 primitive gaussians,  1336 cartesian basis functions
   250 alpha electrons      250 beta electrons
       nuclear repulsion energy     11438.7439429108 Hartrees.
 IExCor=  402 DFT=T Ex+Corr=B3LYP ExCW=0 ScaHFX=  0.200000
 ScaDFX=  0.800000  0.720000  1.000000  0.810000 ScalE2=  1.000000  1.000000
 IRadAn=      0 IRanWt=     -1 IRanGd=            0 ICorTp=0
 NAtoms=  128 NActive=  128 NUniq=  128 SFac= 1.00D+00 NAtFMM=   60 NAOKFM=T Big=T
 Leave Link  301 at Fri Feb  1 21:50:32 2013, MaxMem= 1073741824 cpu:       0.6
 (Enter /apps/gaussian/g09_c01/g09/l302.exe)
 NPDir=0 NMtPBC=     1 NCelOv=     1 NCel=       1 NClECP=     1 NCelD=      1
         NCelK=      1 NCelE2=     1 NClLst=     1 CellRange=     0.0.
 One-electron integrals computed using PRISM.
 NBasis=  1336 RedAO= T  NBF=  1336
 NBsUse=  1336 1.00D-06 NBFU=  1336
 Precomputing XC quadrature grid using
 IXCGrd= 2 IRadAn=           0 IRanWt=          -1 IRanGd=           0 AccXCQ= 0.00D+00.
 NRdTot=    8320 NPtTot=     1064556 NUsed=     1124473 NTot=     1124505
 NSgBfM=  1015  1015  1015  1016  1020 NAtAll=   128   128.
 Leave Link  302 at Fri Feb  1 21:50:44 2013, MaxMem= 1073741824 cpu:      94.0
 (Enter /apps/gaussian/g09_c01/g09/l308.exe)
 Leave Link  308 at Fri Feb  1 21:50:45 2013, MaxMem= 1073741824 cpu:       6.0
 (Enter /apps/gaussian/g09_c01/g09/l303.exe)
 DipDrv:  MaxL=1.
 Leave Link  303 at Fri Feb  1 21:50:46 2013, MaxMem= 1073741824 cpu:       5.1
 (Enter /apps/gaussian/g09_c01/g09/l401.exe)
 Harris functional with IExCor=  402 diagonalized for initial guess.
 ExpMin= 7.78D-02 ExpMax= 1.61D+04 ExpMxC= 2.43D+03 IAcc=2 IRadAn=         4 AccDes= 0.00D+00
 HarFok:  IExCor=  402 AccDes= 0.00D+00 IRadAn=         4 IDoV= 1
 ScaDFX=  1.000000  1.000000  1.000000  1.000000
 FoFCou: FMM=F IPFlag=           0 FMFlag=      100000 FMFlg1=        2001
         NFxFlg=           0 DoJE=T BraDBF=F KetDBF=T FulRan=T
         Omega=  0.000000  0.000000  1.000000  0.000000  0.000000 ICntrl=     500 IOpCl=  0
         NMat0=    1 NMatS0=    1 NMatT0=    0 NMatD0=    1 NMtDS0=    0 NMtDT0=    0
         I1Cent=           4 NGrid=           0.
 Symmetry not used in FoFCou.
 Harris En= -3633.06432674364    
 Leave Link  401 at Fri Feb  1 21:51:05 2013, MaxMem= 1073741824 cpu:     150.1
 (Enter /apps/gaussian/g09_c01/g09/l502.exe)
 Closed shell SCF:
 Requested convergence on RMS density matrix=1.00D-08 within 128 cycles.
 Requested convergence on MAX density matrix=1.00D-06.
 Requested convergence on             energy=1.00D-06.
 No special actions if energy rises.
 Using DIIS extrapolation, IDIIS=  1040.
 Two-electron integral symmetry not used.
      1123308 words used for storage of precomputed grid.
 IEnd=     6515102 IEndB=     6515102 NGot=  1073741824 MDV=  1069029595
 LenX=  1069029595 LenY=  1067243363
 Fock matrices will be formed incrementally for  20 cycles.
 Integral accuracy reduced to 1.0D-05 until final iterations.

 Cycle   1  Pass 0  IDiag  1:
 FoFCou: FMM=T IPFlag=           0 FMFlag=      100000 FMFlg1=        2001
         NFxFlg=           0 DoJE=F BraDBF=F KetDBF=F FulRan=T
         Omega=  0.000000  0.000000  1.000000  0.000000  0.000000 ICntrl=       0 IOpCl=  0
         NMat0=    1 NMatS0=    1 NMatT0=    0 NMatD0=    1 NMtDS0=    0 NMtDT0=    0
         I1Cent=           0 NGrid=           0.
 Symmetry not used in FoFCou.
 FMM levels:  10  Number of levels for PrismC:   9
 E= -3629.82715999526    
 DIIS: error= 4.19D-02 at cycle   1 NSaved=   1.
 NSaved= 1 IEnMin= 1 EnMin= -3629.82715999526     IErMin= 1 ErrMin= 4.19D-02
 ErrMax= 4.19D-02 EMaxC= 1.00D-01 BMatC= 2.38D+00 BMatP= 2.38D+00
 IDIUse=3 WtCom= 5.81D-01 WtEn= 4.19D-01
 Coeff-Com:  0.100D+01
 Coeff-En:   0.100D+01
 Coeff:      0.100D+01
 Gap=     0.074 Goal=   None    Shift=    0.000
 GapD=    0.074 DampG=0.500 DampE=0.500 DampFc=0.2500 IDamp=-1.
 Damping current iteration by 2.50D-01
 RMSDP=2.88D-03 MaxDP=1.78D-01              OVMax= 2.08D-01

 Cycle   2  Pass 0  IDiag  1:
 RMSU=  4.74D-04    CP:  9.73D-01
 E= -3630.70993847320     Delta-E=       -0.882778477939 Rises=F Damp=T
 DIIS: error= 2.15D-02 at cycle   2 NSaved=   2.
 NSaved= 2 IEnMin= 2 EnMin= -3630.70993847320     IErMin= 2 ErrMin= 2.15D-02
 ErrMax= 2.15D-02 EMaxC= 1.00D-01 BMatC= 6.80D-01 BMatP= 2.38D+00
 IDIUse=3 WtCom= 7.85D-01 WtEn= 2.15D-01
 Coeff-Com: -0.103D+01 0.203D+01
 Coeff-En:   0.000D+00 0.100D+01
 Coeff:     -0.807D+00 0.181D+01
 Gap=     0.073 Goal=   None    Shift=    0.000
 RMSDP=1.52D-03 MaxDP=1.27D-01 DE=-8.83D-01 OVMax= 1.63D-01

 Cycle   3  Pass 0  IDiag  1:
 RMSU=  5.62D-04    CP:  9.05D-01  2.65D+00
 E= -3632.18824773998     Delta-E=       -1.478309266782 Rises=F Damp=F
 DIIS: error= 8.35D-03 at cycle   3 NSaved=   3.
 NSaved= 3 IEnMin= 3 EnMin= -3632.18824773998     IErMin= 3 ErrMin= 8.35D-03
 ErrMax= 8.35D-03 EMaxC= 1.00D-01 BMatC= 7.88D-02 BMatP= 6.80D-01
 IDIUse=3 WtCom= 9.17D-01 WtEn= 8.35D-02
 Coeff-Com: -0.399D+00 0.852D+00 0.547D+00
 Coeff-En:   0.000D+00 0.000D+00 0.100D+01
 Coeff:     -0.365D+00 0.781D+00 0.584D+00
 Gap=     0.064 Goal=   None    Shift=    0.000
 RMSDP=5.05D-04 MaxDP=3.72D-02 DE=-1.48D+00 OVMax= 1.58D-01

 Cycle   4  Pass 0  IDiag  1:
 RMSU=  3.13D-04    CP:  9.10D-01  2.55D+00  7.11D-01
 E= -3632.19043252399     Delta-E=       -0.002184784013 Rises=F Damp=F
 DIIS: error= 8.11D-03 at cycle   4 NSaved=   4.
 NSaved= 4 IEnMin= 4 EnMin= -3632.19043252399     IErMin= 4 ErrMin= 8.11D-03
 ErrMax= 8.11D-03 EMaxC= 1.00D-01 BMatC= 7.82D-02 BMatP= 7.88D-02
 IDIUse=3 WtCom= 9.19D-01 WtEn= 8.11D-02
 Coeff-Com: -0.462D-01 0.155D+00 0.483D+00 0.408D+00
 Coeff-En:   0.000D+00 0.000D+00 0.496D+00 0.504D+00
 Coeff:     -0.424D-01 0.143D+00 0.484D+00 0.416D+00
 Gap=     0.062 Goal=   None    Shift=    0.000
 RMSDP=2.68D-04 MaxDP=2.18D-02 DE=-2.18D-03 OVMax= 9.88D-02

 Cycle   5  Pass 0  IDiag  1:
 RMSU=  9.20D-05    CP:  9.11D-01  2.51D+00  8.21D-01  5.12D-01
 E= -3632.27853141951     Delta-E=       -0.088098895521 Rises=F Damp=F
 DIIS: error= 1.75D-03 at cycle   5 NSaved=   5.
 NSaved= 5 IEnMin= 5 EnMin= -3632.27853141951     IErMin= 5 ErrMin= 1.75D-03
 ErrMax= 1.75D-03 EMaxC= 1.00D-01 BMatC= 4.17D-03 BMatP= 7.82D-02
 IDIUse=3 WtCom= 9.83D-01 WtEn= 1.75D-02
 Coeff-Com:  0.195D-01-0.617D-02 0.238D+00 0.257D+00 0.491D+00
 Coeff-En:   0.000D+00 0.000D+00 0.000D+00 0.000D+00 0.100D+01
 Coeff:      0.192D-01-0.607D-02 0.234D+00 0.253D+00 0.500D+00
 Gap=     0.062 Goal=   None    Shift=    0.000
 RMSDP=7.74D-05 MaxDP=9.57D-03 DE=-8.81D-02 OVMax= 1.99D-02

 Cycle   6  Pass 0  IDiag  1:
 RMSU=  3.51D-05    CP:  9.10D-01  2.52D+00  8.45D-01  5.24D-01  5.78D-01
 E= -3632.28231735959     Delta-E=       -0.003785940076 Rises=F Damp=F
 DIIS: error= 4.41D-04 at cycle   6 NSaved=   6.
 NSaved= 6 IEnMin= 6 EnMin= -3632.28231735959     IErMin= 6 ErrMin= 4.41D-04
 ErrMax= 4.41D-04 EMaxC= 1.00D-01 BMatC= 5.39D-04 BMatP= 4.17D-03
 IDIUse=3 WtCom= 9.96D-01 WtEn= 4.41D-03
 Coeff-Com:  0.163D-01-0.199D-01 0.873D-01 0.106D+00 0.313D+00 0.497D+00
 Coeff-En:   0.000D+00 0.000D+00 0.000D+00 0.000D+00 0.107D+00 0.893D+00
 Coeff:      0.162D-01-0.198D-01 0.869D-01 0.106D+00 0.312D+00 0.499D+00
 Gap=     0.062 Goal=   None    Shift=    0.000
 RMSDP=2.70D-05 MaxDP=2.30D-03 DE=-3.79D-03 OVMax= 8.12D-03

 Cycle   7  Pass 0  IDiag  1:
 RMSU=  1.46D-05    CP:  9.10D-01  2.53D+00  8.45D-01  5.31D-01  6.62D-01
                    CP:  7.39D-01
 E= -3632.28287988772     Delta-E=       -0.000562528130 Rises=F Damp=F
 DIIS: error= 1.81D-04 at cycle   7 NSaved=   7.
 NSaved= 7 IEnMin= 7 EnMin= -3632.28287988772     IErMin= 7 ErrMin= 1.81D-04
 ErrMax= 1.81D-04 EMaxC= 1.00D-01 BMatC= 5.89D-05 BMatP= 5.39D-04
 IDIUse=3 WtCom= 9.98D-01 WtEn= 1.81D-03
 Coeff-Com:  0.748D-02-0.103D-01 0.316D-01 0.416D-01 0.146D+00 0.310D+00
 Coeff-Com:  0.473D+00
 Coeff-En:   0.000D+00 0.000D+00 0.000D+00 0.000D+00 0.000D+00 0.270D-01
 Coeff-En:   0.973D+00
 Coeff:      0.746D-02-0.103D-01 0.315D-01 0.415D-01 0.146D+00 0.310D+00
 Coeff:      0.474D+00
 Gap=     0.062 Goal=   None    Shift=    0.000
 RMSDP=1.13D-05 MaxDP=8.27D-04 DE=-5.63D-04 OVMax= 5.33D-03

 Cycle   8  Pass 0  IDiag  1:
 RMSU=  6.69D-06    CP:  9.10D-01  2.53D+00  8.45D-01  5.37D-01  6.72D-01
                    CP:  8.21D-01  8.17D-01
 E= -3632.28293732609     Delta-E=       -0.000057438368 Rises=F Damp=F
 DIIS: error= 1.27D-04 at cycle   8 NSaved=   8.
 NSaved= 8 IEnMin= 8 EnMin= -3632.28293732609     IErMin= 8 ErrMin= 1.27D-04
 ErrMax= 1.27D-04 EMaxC= 1.00D-01 BMatC= 2.04D-05 BMatP= 5.89D-05
 IDIUse=3 WtCom= 9.99D-01 WtEn= 1.27D-03
 Coeff-Com:  0.318D-02-0.465D-02 0.117D-01 0.164D-01 0.662D-01 0.168D+00
 Coeff-Com:  0.373D+00 0.367D+00
 Coeff-En:   0.000D+00 0.000D+00 0.000D+00 0.000D+00 0.000D+00 0.000D+00
 Coeff-En:   0.217D+00 0.783D+00
 Coeff:      0.317D-02-0.464D-02 0.116D-01 0.164D-01 0.661D-01 0.168D+00
 Coeff:      0.372D+00 0.367D+00
 Gap=     0.062 Goal=   None    Shift=    0.000
 RMSDP=5.55D-06 MaxDP=4.06D-04 DE=-5.74D-05 OVMax= 2.66D-03

 Initial convergence to 1.0D-05 achieved.  Increase integral accuracy.
 Cycle   9  Pass 1  IDiag  1:
 E= -3632.28255426090     Delta-E=        0.000383065193 Rises=F Damp=F
 DIIS: error= 9.65D-04 at cycle   1 NSaved=   1.
 NSaved= 1 IEnMin= 1 EnMin= -3632.28255426090     IErMin= 1 ErrMin= 9.65D-04
 ErrMax= 9.65D-04 EMaxC= 1.00D-01 BMatC= 2.76D-04 BMatP= 2.76D-04
 IDIUse=3 WtCom= 9.90D-01 WtEn= 9.65D-03
 Coeff-Com:  0.100D+01
 Coeff-En:   0.100D+01
 Coeff:      0.100D+01
 Gap=     0.062 Goal=   None    Shift=    0.000
 RMSDP=5.55D-06 MaxDP=4.06D-04 DE= 3.83D-04 OVMax= 1.76D-03

 Cycle  10  Pass 1  IDiag  1:
 RMSU=  3.50D-04    CP:  9.98D-01
 E= -3632.28275464646     Delta-E=       -0.000200385566 Rises=F Damp=F
 DIIS: error= 5.99D-05 at cycle   2 NSaved=   2.
 NSaved= 2 IEnMin= 2 EnMin= -3632.28275464646     IErMin= 2 ErrMin= 5.99D-05
 ErrMax= 5.99D-05 EMaxC= 1.00D-01 BMatC= 6.01D-06 BMatP= 2.76D-04
 IDIUse=1 WtCom= 1.00D+00 WtEn= 0.00D+00
 Coeff-Com:  0.223D-01 0.978D+00
 Coeff:      0.223D-01 0.978D+00
 Gap=     0.062 Goal=   None    Shift=    0.000
 RMSDP=9.40D-06 MaxDP=8.06D-04 DE=-2.00D-04 OVMax= 4.84D-03

 Cycle  11  Pass 1  IDiag  1:
 RMSU=  5.85D-06    CP:  9.98D-01  1.01D+00
 E= -3632.28270792923     Delta-E=        0.000046717234 Rises=F Damp=F
 DIIS: error= 1.83D-04 at cycle   3 NSaved=   3.
 NSaved= 3 IEnMin= 2 EnMin= -3632.28275464646     IErMin= 2 ErrMin= 5.99D-05
 ErrMax= 1.83D-04 EMaxC= 1.00D-01 BMatC= 4.65D-05 BMatP= 6.01D-06
 IDIUse=3 WtCom= 4.25D-01 WtEn= 5.75D-01
 Coeff-Com: -0.432D-02 0.741D+00 0.263D+00
 Coeff-En:   0.000D+00 0.821D+00 0.179D+00
 Coeff:     -0.184D-02 0.787D+00 0.215D+00
 Gap=     0.062 Goal=   None    Shift=    0.000
 RMSDP=5.12D-06 MaxDP=4.66D-04 DE= 4.67D-05 OVMax= 3.05D-03

 Cycle  12  Pass 1  IDiag  1:
 RMSU=  8.28D-07    CP:  9.98D-01  1.01D+00  3.99D-01
 E= -3632.28275978864     Delta-E=       -0.000051859410 Rises=F Damp=F
 DIIS: error= 2.65D-05 at cycle   4 NSaved=   4.
 NSaved= 4 IEnMin= 4 EnMin= -3632.28275978864     IErMin= 4 ErrMin= 2.65D-05
 ErrMax= 2.65D-05 EMaxC= 1.00D-01 BMatC= 1.51D-06 BMatP= 6.01D-06
 IDIUse=1 WtCom= 1.00D+00 WtEn= 0.00D+00
 Coeff-Com: -0.337D-02 0.453D+00 0.825D-01 0.468D+00
 Coeff:     -0.337D-02 0.453D+00 0.825D-01 0.468D+00
 Gap=     0.062 Goal=   None    Shift=    0.000
 RMSDP=1.08D-06 MaxDP=1.13D-04 DE=-5.19D-05 OVMax= 5.17D-04

 Cycle  13  Pass 1  IDiag  1:
 RMSU=  3.31D-07    CP:  9.98D-01  1.01D+00  2.84D-01  8.92D-01
 E= -3632.28276144033     Delta-E=       -0.000001651697 Rises=F Damp=F
 DIIS: error= 2.83D-06 at cycle   5 NSaved=   5.
 NSaved= 5 IEnMin= 5 EnMin= -3632.28276144033     IErMin= 5 ErrMin= 2.83D-06
 ErrMax= 2.83D-06 EMaxC= 1.00D-01 BMatC= 1.33D-08 BMatP= 1.51D-06
 IDIUse=1 WtCom= 1.00D+00 WtEn= 0.00D+00
 Coeff-Com: -0.185D-02 0.242D+00 0.391D-01 0.281D+00 0.440D+00
 Coeff:     -0.185D-02 0.242D+00 0.391D-01 0.281D+00 0.440D+00
 Gap=     0.062 Goal=   None    Shift=    0.000
 RMSDP=1.28D-07 MaxDP=1.86D-05 DE=-1.65D-06 OVMax= 3.42D-05

 Cycle  14  Pass 1  IDiag  1:
 RMSU=  8.56D-08    CP:  9.98D-01  1.01D+00  2.82D-01  9.06D-01  9.36D-01
 E= -3632.28276145118     Delta-E=       -0.000000010848 Rises=F Damp=F
 DIIS: error= 1.22D-06 at cycle   6 NSaved=   6.
 NSaved= 6 IEnMin= 6 EnMin= -3632.28276145118     IErMin= 6 ErrMin= 1.22D-06
 ErrMax= 1.22D-06 EMaxC= 1.00D-01 BMatC= 2.72D-09 BMatP= 1.33D-08
 IDIUse=1 WtCom= 1.00D+00 WtEn= 0.00D+00
 Coeff-Com: -0.486D-03 0.611D-01 0.779D-02 0.844D-01 0.311D+00 0.536D+00
 Coeff:     -0.486D-03 0.611D-01 0.779D-02 0.844D-01 0.311D+00 0.536D+00
 Gap=     0.062 Goal=   None    Shift=    0.000
 RMSDP=6.19D-08 MaxDP=6.25D-06 DE=-1.08D-08 OVMax= 2.90D-05

 Cycle  15  Pass 1  IDiag  1:
 RMSU=  3.50D-08    CP:  9.98D-01  1.01D+00  2.84D-01  9.09D-01  9.62D-01
                    CP:  7.57D-01
 E= -3632.28276145305     Delta-E=       -0.000000001864 Rises=F Damp=F
 DIIS: error= 9.01D-07 at cycle   7 NSaved=   7.
 NSaved= 7 IEnMin= 7 EnMin= -3632.28276145305     IErMin= 7 ErrMin= 9.01D-07
 ErrMax= 9.01D-07 EMaxC= 1.00D-01 BMatC= 6.96D-10 BMatP= 2.72D-09
 IDIUse=1 WtCom= 1.00D+00 WtEn= 0.00D+00
 Coeff-Com: -0.614D-04 0.624D-02-0.585D-03 0.168D-01 0.152D+00 0.399D+00
 Coeff-Com:  0.426D+00
 Coeff:     -0.614D-04 0.624D-02-0.585D-03 0.168D-01 0.152D+00 0.399D+00
 Coeff:      0.426D+00
 Gap=     0.062 Goal=   None    Shift=    0.000
 RMSDP=3.01D-08 MaxDP=2.66D-06 DE=-1.86D-09 OVMax= 1.10D-05

 Cycle  16  Pass 1  IDiag  1:
 RMSU=  1.14D-08    CP:  9.98D-01  1.01D+00  2.84D-01  9.10D-01  9.65D-01
                    CP:  7.73D-01  4.92D-01
 E= -3632.28276145424     Delta-E=       -0.000000001193 Rises=F Damp=F
 DIIS: error= 1.60D-07 at cycle   8 NSaved=   8.
 NSaved= 8 IEnMin= 8 EnMin= -3632.28276145424     IErMin= 8 ErrMin= 1.60D-07
 ErrMax= 1.60D-07 EMaxC= 1.00D-01 BMatC= 4.69D-11 BMatP= 6.96D-10
 IDIUse=1 WtCom= 1.00D+00 WtEn= 0.00D+00
 Coeff-Com:  0.179D-04-0.322D-02-0.147D-02 0.102D-02 0.571D-01 0.186D+00
 Coeff-Com:  0.257D+00 0.503D+00
 Coeff:      0.179D-04-0.322D-02-0.147D-02 0.102D-02 0.571D-01 0.186D+00
 Coeff:      0.257D+00 0.503D+00
 Gap=     0.062 Goal=   None    Shift=    0.000
 RMSDP=9.22D-09 MaxDP=8.37D-07 DE=-1.19D-09 OVMax= 4.44D-06

 SCF Done:  E(RB3LYP) =  -3632.28276145     A.U. after   16 cycles
             Convg  =    0.9215D-08             -V/T =  2.0040
 KE= 3.617978676310D+03 PE=-3.137286624876D+04 EE= 1.268386086809D+04
 Leave Link  502 at Fri Feb  1 22:29:49 2013, MaxMem= 1073741824 cpu:   18576.0
 (Enter /apps/gaussian/g09_c01/g09/l801.exe)
 ExpMin= 7.78D-02 ExpMax= 1.61D+04 ExpMxC= 2.43D+03 IAcc=3 IRadAn=         5 AccDes= 0.00D+00
 HarFok:  IExCor=  205 AccDes= 0.00D+00 IRadAn=         5 IDoV=-2
 ScaDFX=  1.000000  1.000000  1.000000  1.000000
 Largest valence mixing into a core orbital is  6.43D-05
 Largest core mixing into a valence orbital is  1.54D-05
 Range of M.O.s used for correlation:    85  1336
 NBasis=  1336 NAE=   250 NBE=   250 NFC=    84 NFV=     0
 NROrb=   1252 NOA=   166 NOB=   166 NVA=  1086 NVB=  1086

 **** Warning!!: The largest alpha MO coefficient is  0.10520451D+02


 **** Warning!!: The smallest alpha delta epsilon is  0.62250933D-01

 Leave Link  801 at Fri Feb  1 22:29:50 2013, MaxMem= 1073741824 cpu:      10.1
 (Enter /apps/gaussian/g09_c01/g09/l914.exe)
 RHF ground state
 MDV=  1073741824 DFT=T DoStab=F Mixed=T DoRPA=T DoScal=F NonHer=T
 Would need an additional************ words for in-memory AO integral storage.
 Making orbital integer symmetry assigments:
   100 initial guesses have been made.
 Convergence on wavefunction:    0.001000000000000
 Davidson Disk Diagonalization:  ConvIn= 1.00D-03 SkipCon=T Conv= 1.00D-03.
 Max sub-space:   400 roots to seek:   100 dimension of matrix: 360552
 Iteration     1 Dimension   100 NMult   100
 CISAX:  IP=  8 NPass=   4 NMax=    25.
 CISAX will form    25 AO SS matrices at one time.
 NMat=    25 NSing=    25.
 FoFCou: FMM=T IPFlag=           0 FMFlag=      100000 FMFlg1=        2001
         NFxFlg=           0 DoJE=F BraDBF=F KetDBF=F FulRan=T
         Omega=  0.000000  0.000000  1.000000  0.000000  0.000000 ICntrl=       0 IOpCl=  0
         NMat0=   25 NMatS0=   25 NMatT0=    0 NMatD0=   25 NMtDS0=    0 NMtDT0=    0
         I1Cent=           0 NGrid=           0.
 Symmetry not used in FoFCou.
 FMM levels:  10  Number of levels for PrismC:   9
 NMat=    25 NSing=    25.
 NMat=    25 NSing=    25.
 NMat=    25 NSing=    25.
 CISAX:  IP=  8 NPass=   4 NMax=    25.
 CISAX will form    25 AO SS matrices at one time.
 NMat=    25 NSing=    25.
 NMat=    25 NSing=    25.
 NMat=    25 NSing=    25.
 NMat=    25 NSing=    25.
 New state      1 was old state      2
 New state      2 was old state      1
 New state     11 was old state     12
 New state     12 was old state     13
 New state     13 was old state     11
 New state     14 was old state     15
 New state     15 was old state     17
 New state     16 was old state     18
 New state     17 was old state     22
 New state     18 was old state     20
 New state     20 was old state     25
 New state     22 was old state     23
 New state     23 was old state     14
 No map to state     24
 New state     25 was old state     24
 Excitation Energies [eV] at current iteration:
 Root      1 :     1.372557823952316
 Root      2 :     1.421098884122785
 Root      3 :     2.119375040484674
 Root      4 :     2.221200184414927
 Root      5 :     2.445705124370420
 Root      6 :     2.493371521532126
 Root      7 :     2.822555206180164
 Root      8 :     2.862044001083001
 Root      9 :     2.908923419111058
 Root     10 :     3.021482596277222
 Root     11 :     3.137800566580966
 Root     12 :     3.169216947211401
 Root     13 :     3.176709853094275
 Root     14 :     3.221524206099862
 Root     15 :     3.297445817454194
 Root     16 :     3.324333855243064
 Root     17 :     3.454184641190366
 Root     18 :     3.493429955075745
 Root     19 :     3.552258877635232
 Root     20 :     3.565172426099901
 Root     21 :     3.565603241715233
 Root     22 :     3.597667714298187
 Root     23 :     3.622067892679731
 Root     24 :     3.664110387871068
 Root     25 :     3.687267973567471
 Iteration     2 Dimension   150 NMult   150
 CISAX:  IP=  8 NPass=   2 NMax=    25.
 CISAX will form    25 AO SS matrices at one time.
 NMat=    25 NSing=    25.
 NMat=    25 NSing=    25.
 CISAX:  IP=  8 NPass=   2 NMax=    25.
 CISAX will form    25 AO SS matrices at one time.
 NMat=    25 NSing=    25.
 NMat=    25 NSing=    25.
 Root      1 not converged, maximum delta is    0.165289056211217
 Root      2 not converged, maximum delta is    0.140917411118636
 Root      3 not converged, maximum delta is    0.114878675696750
 Root      4 not converged, maximum delta is    0.109474864015788
 Root      5 not converged, maximum delta is    0.067331517480846
 Root      6 not converged, maximum delta is    0.095460724204136
 Root      7 not converged, maximum delta is    0.107508323342654
 Root      8 not converged, maximum delta is    0.090588799069302
 Root      9 not converged, maximum delta is    0.116216751358660
 Root     10 not converged, maximum delta is    0.060705150548263
 Root     11 not converged, maximum delta is    0.229339260566507
 New state     12 was old state     13
 Root     12 not converged, maximum delta is    0.337865167840270
 New state     13 was old state     12
 Root     13 not converged, maximum delta is    0.155945590263794
 Root     14 not converged, maximum delta is    0.143395635217009
 New state     15 was old state     16
 Root     15 not converged, maximum delta is    0.320125354223039
 New state     16 was old state     18
 Root     16 not converged, maximum delta is    0.331726518427123
 New state     17 was old state     15
 Root     17 not converged, maximum delta is    0.127255760806259
 New state     18 was old state     21
 Root     18 not converged, maximum delta is    0.547599434427330
 New state     19 was old state     17
 Root     19 not converged, maximum delta is    0.268898151988637
 New state     20 was old state     23
 Root     20 not converged, maximum delta is    0.455010369182999
 New state     21 was old state     20
 Root     21 not converged, maximum delta is    0.331198775383661
 New state     22 was old state     19
 Root     22 not converged, maximum delta is    0.232864545436663
 New state     23 was old state     22
 Root     23 not converged, maximum delta is    0.250522558591867
 New state     24 was old state     25
 Root     24 not converged, maximum delta is    0.294756339474341
 New state     25 was old state     24
 Root     25 not converged, maximum delta is    0.027542379585291
 Excitation Energies [eV] at current iteration:
 Root      1 :     1.302675931063995   Change is   -0.069881892888321
 Root      2 :     1.338332495178063   Change is   -0.082766388944722
 Root      3 :     1.787916651694275   Change is   -0.331458388790399
 Root      4 :     1.870664328271297   Change is   -0.350535856143630
 Root      5 :     2.383534694482449   Change is   -0.062170429887970
 Root      6 :     2.428087937492370   Change is   -0.065283584039757
 Root      7 :     2.755281553690168   Change is   -0.067273652489995
 Root      8 :     2.819553792785383   Change is   -0.042490208297618
 Root      9 :     2.843806615644639   Change is   -0.065116803466419
 Root     10 :     2.979004451474971   Change is   -0.042478144802251
 Root     11 :     3.074979064687723   Change is   -0.062821501893243
 Root     12 :     3.093734953403159   Change is   -0.082974899691116
 Root     13 :     3.122065092771162   Change is   -0.047151854440239
 Root     14 :     3.172119428046680   Change is   -0.049404778053181
 Root     15 :     3.233642327580176   Change is   -0.090691527662888
 Root     16 :     3.265602455147907   Change is   -0.227827499927838
 Root     17 :     3.279874812086582   Change is   -0.017571005367611
 Root     18 :     3.407523042525545   Change is   -0.158080199189689
 Root     19 :     3.434555864044214   Change is   -0.019628777146152
 Root     20 :     3.509681985899142   Change is   -0.112385906780589
 Root     21 :     3.522672769055528   Change is   -0.042499657044373
 Root     22 :     3.530493434714041   Change is   -0.021765442921190
 Root     23 :     3.552045575568752   Change is   -0.045622138729435
 Root     24 :     3.622075369633748   Change is   -0.065192603933723
 Root     25 :     3.636501934188159   Change is   -0.027608453682909
 Iteration     3 Dimension   200 NMult   200
 CISAX:  IP=  8 NPass=   2 NMax=    25.
 CISAX will form    25 AO SS matrices at one time.
 NMat=    25 NSing=    25.
 NMat=    25 NSing=    25.
 CISAX:  IP=  8 NPass=   2 NMax=    25.
 CISAX will form    25 AO SS matrices at one time.
 NMat=    25 NSing=    25.
 NMat=    25 NSing=    25.
 Root      1 not converged, maximum delta is    0.006468807803373
 Root      2 not converged, maximum delta is    0.006315727751862
 Root      3 not converged, maximum delta is    0.004916541400519
 Root      4 not converged, maximum delta is    0.005559408945331
 Root      5 not converged, maximum delta is    0.003276285698657
 Root      6 not converged, maximum delta is    0.004318998760276
 Root      7 not converged, maximum delta is    0.003906296411883
 Root      8 not converged, maximum delta is    0.006465959716750
 Root      9 not converged, maximum delta is    0.009456642890083
 Root     10 not converged, maximum delta is    0.009698877624163
 Root     11 not converged, maximum delta is    0.013012374904612
 Root     12 not converged, maximum delta is    0.030186407216321
 Root     13 not converged, maximum delta is    0.015994168101639
 Root     14 not converged, maximum delta is    0.029441335006730
 Root     15 not converged, maximum delta is    0.024925591548198
 Root     16 not converged, maximum delta is    0.024118173761837
 Root     17 not converged, maximum delta is    0.006855687341757
 Root     18 not converged, maximum delta is    0.017059601169487
 Root     19 not converged, maximum delta is    0.020232715570135
 Root     20 not converged, maximum delta is    0.175633629285113
 New state     21 was old state     22
 Root     21 not converged, maximum delta is    0.208118958109032
 New state     22 was old state     21
 Root     22 not converged, maximum delta is    0.035276761272676
 Root     23 not converged, maximum delta is    0.012161110091291
 Root     24 not converged, maximum delta is    0.077383716192216
 Root     25 not converged, maximum delta is    0.008387651861724
 Excitation Energies [eV] at current iteration:
 Root      1 :     1.299911294469915   Change is   -0.002764636594080
 Root      2 :     1.334620033411564   Change is   -0.003712461766499
 Root      3 :     1.779783040466146   Change is   -0.008133611228129
 Root      4 :     1.860381201479303   Change is   -0.010283126791994
 Root      5 :     2.379917800649557   Change is   -0.003616893832893
 Root      6 :     2.424663771084231   Change is   -0.003424166408138
 Root      7 :     2.751231439153202   Change is   -0.004050114536967
 Root      8 :     2.816544698886133   Change is   -0.003009093899250
 Root      9 :     2.839169841070760   Change is   -0.004636774573879
 Root     10 :     2.975043905873163   Change is   -0.003960545601808
 Root     11 :     3.069741105359679   Change is   -0.005237959328044
 Root     12 :     3.086091830176179   Change is   -0.007643123226980
 Root     13 :     3.117270351719175   Change is   -0.004794741051987
 Root     14 :     3.167076568056270   Change is   -0.005042859990410
 Root     15 :     3.229073925203892   Change is   -0.004568402376284
 Root     16 :     3.257340057686582   Change is   -0.008262397461325
 Root     17 :     3.278548522315979   Change is   -0.001326289770603
 Root     18 :     3.401745536404803   Change is   -0.005777506120741
 Root     19 :     3.430050769147707   Change is   -0.004505094896507
 Root     20 :     3.501151064395766   Change is   -0.008530921503376
 Root     21 :     3.515859233308212   Change is   -0.014634201405829
 Root     22 :     3.516703789842640   Change is   -0.005968979212888
 Root     23 :     3.550159870129067   Change is   -0.001885705439686
 Root     24 :     3.618869351543785   Change is   -0.003206018089963
 Root     25 :     3.634736902597962   Change is   -0.001765031590198
 Iteration     4 Dimension   250 NMult   250
 CISAX:  IP=  8 NPass=   2 NMax=    25.
 CISAX will form    25 AO SS matrices at one time.
 NMat=    25 NSing=    25.
 NMat=    25 NSing=    25.
 CISAX:  IP=  8 NPass=   2 NMax=    25.
 CISAX will form    25 AO SS matrices at one time.
 NMat=    25 NSing=    25.
 NMat=    25 NSing=    25.
 Root      1 not converged, maximum delta is    0.001007109797691
 Root      2 has converged.
 Root      3 not converged, maximum delta is    0.001742098782258
 Root      4 has converged.
 Root      5 has converged.
 Root      6 not converged, maximum delta is    0.001305540530892
 Root      7 not converged, maximum delta is    0.001041118901568
 Root      8 has converged.
 Root      9 not converged, maximum delta is    0.001003144402697
 Root     10 has converged.
 Root     11 not converged, maximum delta is    0.001439143626011
 Root     12 not converged, maximum delta is    0.002744492082007
 Root     13 not converged, maximum delta is    0.001479977744500
 Root     14 not converged, maximum delta is    0.002752699433484
 Root     15 not converged, maximum delta is    0.002234168593232
 Root     16 not converged, maximum delta is    0.002231372825906
 Root     17 has converged.
 Root     18 not converged, maximum delta is    0.002077199038057
 Root     19 not converged, maximum delta is    0.002752121205461
 Root     20 not converged, maximum delta is    0.029858315164303
 Root     21 not converged, maximum delta is    0.035482444672486
 Root     22 not converged, maximum delta is    0.006178802836873
 Root     23 not converged, maximum delta is    0.001984380232978
 Root     24 not converged, maximum delta is    0.022258067812130
 Root     25 not converged, maximum delta is    0.002261807409857
 Excitation Energies [eV] at current iteration:
 Root      1 :     1.299598808440836   Change is   -0.000312486029079
 Root      2 :     1.334287347958583   Change is   -0.000332685452981
 Root      3 :     1.778846004074718   Change is   -0.000937036391428
 Root      4 :     1.859615822070745   Change is   -0.000765379408558
 Root      5 :     2.379576114528964   Change is   -0.000341686120593
 Root      6 :     2.424375517897190   Change is   -0.000288253187042
 Root      7 :     2.750717670612751   Change is   -0.000513768540451
 Root      8 :     2.816257704813280   Change is   -0.000286994072853
 Root      9 :     2.838806861708614   Change is   -0.000362979362146
 Root     10 :     2.974624734353227   Change is   -0.000419171519937
 Root     11 :     3.069223483455107   Change is   -0.000517621904572
 Root     12 :     3.085287935254901   Change is   -0.000803894921278
 Root     13 :     3.116850780710891   Change is   -0.000419571008284
 Root     14 :     3.166541188093120   Change is   -0.000535379963150
 Root     15 :     3.228628674554488   Change is   -0.000445250649404
 Root     16 :     3.256596038969606   Change is   -0.000744018716976
 Root     17 :     3.278445054176467   Change is   -0.000103468139512
 Root     18 :     3.401156722395741   Change is   -0.000588814009062
 Root     19 :     3.429544208056786   Change is   -0.000506561090921
 Root     20 :     3.499870673576622   Change is   -0.001280390819144
 Root     21 :     3.514122672205170   Change is   -0.001736561103042
 Root     22 :     3.515922896784240   Change is   -0.000780893058400
 Root     23 :     3.549884212686441   Change is   -0.000275657442626
 Root     24 :     3.618393200233781   Change is   -0.000476151310004
 Root     25 :     3.634627940877875   Change is   -0.000108961720087
 Iteration     5 Dimension   288 NMult   288
 CISAX:  IP=  8 NPass=   2 NMax=    19.
 CISAX will form    19 AO SS matrices at one time.
 NMat=    19 NSing=    19.
 NMat=    19 NSing=    19.
 CISAX:  IP=  8 NPass=   2 NMax=    19.
 CISAX will form    19 AO SS matrices at one time.
 NMat=    19 NSing=    19.
 NMat=    19 NSing=    19.
 Root      1 has converged.
 Root      2 has converged.
 Root      3 has converged.
 Root      4 has converged.
 Root      5 has converged.
 Root      6 has converged.
 Root      7 has converged.
 Root      8 has converged.
 Root      9 has converged.
 Root     10 has converged.
 Root     11 has converged.
 Root     12 has converged.
 Root     13 has converged.
 Root     14 has converged.
 Root     15 has converged.
 Root     16 has converged.
 Root     17 has converged.
 Root     18 has converged.
 Root     19 has converged.
 Root     20 not converged, maximum delta is    0.002741004293291
 Root     21 not converged, maximum delta is    0.003206081037774
 Root     22 has converged.
 Root     23 has converged.
 Root     24 not converged, maximum delta is    0.002766417589484
 Root     25 has converged.
 Excitation Energies [eV] at current iteration:
 Root      1 :     1.299588779836955   Change is   -0.000010028603881
 Root      2 :     1.334281673365576   Change is   -0.000005674593007
 Root      3 :     1.778813401463179   Change is   -0.000032602611539
 Root      4 :     1.859601808665983   Change is   -0.000014013404762
 Root      5 :     2.379557568616046   Change is   -0.000018545912917
 Root      6 :     2.424361575909834   Change is   -0.000013941987355
 Root      7 :     2.750687168189194   Change is   -0.000030502423557
 Root      8 :     2.816239325571068   Change is   -0.000018379242212
 Root      9 :     2.838785174995475   Change is   -0.000021686713139
 Root     10 :     2.974597096152595   Change is   -0.000027638200631
 Root     11 :     3.069195806447829   Change is   -0.000027677007278
 Root     12 :     3.085250829307699   Change is   -0.000037105947202
 Root     13 :     3.116821381341920   Change is   -0.000029399368971
 Root     14 :     3.166505993416723   Change is   -0.000035194676398
 Root     15 :     3.228604227155029   Change is   -0.000024447399459
 Root     16 :     3.256555568896459   Change is   -0.000040470073146
 Root     17 :     3.278440734282781   Change is   -0.000004319893687
 Root     18 :     3.401122001551952   Change is   -0.000034720843790
 Root     19 :     3.429494387610394   Change is   -0.000049820446392
 Root     20 :     3.499735164151862   Change is   -0.000135509424760
 Root     21 :     3.513980230666245   Change is   -0.000142441538925
 Root     22 :     3.515822270202037   Change is   -0.000100626582203
 Root     23 :     3.549865342991929   Change is   -0.000018869694512
 Root     24 :     3.618348226630659   Change is   -0.000044973603122
 Root     25 :     3.634618980326683   Change is   -0.000008960551192
 Iteration     6 Dimension   294 NMult   294
 CISAX:  IP=  1 NPass=   1 NMax=     6.
 CISAX will form     6 AO SS matrices at one time.
 NMat=     6 NSing=     6.
 CISAX:  IP=  1 NPass=   1 NMax=     6.
 CISAX will form     6 AO SS matrices at one time.
 NMat=     6 NSing=     6.
 Root      1 has converged.
 Root      2 has converged.
 Root      3 has converged.
 Root      4 has converged.
 Root      5 has converged.
 Root      6 has converged.
 Root      7 has converged.
 Root      8 has converged.
 Root      9 has converged.
 Root     10 has converged.
 Root     11 has converged.
 Root     12 has converged.
 Root     13 has converged.
 Root     14 has converged.
 Root     15 has converged.
 Root     16 has converged.
 Root     17 has converged.
 Root     18 has converged.
 Root     19 has converged.
 Root     20 has converged.
 Root     21 has converged.
 Root     22 has converged.
 Root     23 has converged.
 Root     24 has converged.
 Root     25 has converged.
 Excitation Energies [eV] at current iteration:
 Root      1 :     1.299588779810915   Change is   -0.000000000026040
 Root      2 :     1.334281114071023   Change is   -0.000000559294553
 Root      3 :     1.778813401442476   Change is   -0.000000000020703
 Root      4 :     1.859599148773129   Change is   -0.000002659892853
 Root      5 :     2.379557568574673   Change is   -0.000000000041374
 Root      6 :     2.424361510982791   Change is   -0.000000064927044
 Root      7 :     2.750687168135999   Change is   -0.000000000053195
 Root      8 :     2.816238191883079   Change is   -0.000001133687989
 Root      9 :     2.838785174974948   Change is   -0.000000000020527
 Root     10 :     2.974597096071025   Change is   -0.000000000081571
 Root     11 :     3.069195103919548   Change is   -0.000000702528282
 Root     12 :     3.085250829264076   Change is   -0.000000000043623
 Root     13 :     3.116820737193602   Change is   -0.000000644148318
 Root     14 :     3.166505690747142   Change is   -0.000000302669581
 Root     15 :     3.228604131836026   Change is   -0.000000095319003
 Root     16 :     3.256555568873454   Change is   -0.000000000023005
 Root     17 :     3.278440375586245   Change is   -0.000000358696535
 Root     18 :     3.401121892734420   Change is   -0.000000108817532
 Root     19 :     3.429494387569505   Change is   -0.000000000040889
 Root     20 :     3.499725743552013   Change is   -0.000009420599849
 Root     21 :     3.513970355289074   Change is   -0.000009875377171
 Root     22 :     3.515822269219642   Change is   -0.000000000982395
 Root     23 :     3.549865342727479   Change is   -0.000000000264449
 Root     24 :     3.618344723487995   Change is   -0.000003503142664
 Root     25 :     3.634618980185699   Change is   -0.000000000140984
 Convergence achieved on expansion vectors.
 ***********************************************************************
 Excited states from <AA,BB:AA,BB> singles matrix:
 ***********************************************************************
 
 1PDM for each excited state written to RWF  633
 Ground to excited state transition densities written to RWF  633
 Ground to excited state transition electric dipole moments (Au):
       state          X           Y           Z        Dip. S.      Osc.
         1        -0.0008     -0.0003     -0.0004      0.0000      0.0000
         2        -1.3355     -0.7221     -0.7076      2.8059      0.0917
         3        -0.0001     -0.0004     -0.0004      0.0000      0.0000
         4        -0.1845     -1.4212     -1.1342      3.3403      0.1522
         5         0.0001      0.0000      0.0001      0.0000      0.0000
         6        -0.2811     -0.0117     -0.1107      0.0914      0.0054
         7         0.0000      0.0000      0.0000      0.0000      0.0000
         8         0.2473      0.3882      0.2282      0.2639      0.0182
         9         0.0001      0.0003      0.0001      0.0000      0.0000
        10         0.0001     -0.0001      0.0000      0.0000      0.0000
        11         0.0168      0.3152      0.2223      0.1490      0.0112
        12         0.0001     -0.0007     -0.0004      0.0000      0.0000
        13        -0.4263      0.8014      0.2288      0.8763      0.0669
        14        -0.9091      0.0161     -0.5998      1.1864      0.0920
        15         0.2807     -0.1999     -0.1108      0.1310      0.0104
        16        -0.0003      0.0001      0.0000      0.0000      0.0000
        17        -0.2635      0.1759     -0.0109      0.1005      0.0081
        18        -0.2789     -0.0117      0.0433      0.0798      0.0066
        19         0.0000     -0.0003     -0.0001      0.0000      0.0000
        20         0.3492      0.5338      0.4399      0.6004      0.0515
        21        -0.3500     -0.6321     -0.5630      0.8391      0.0722
        22        -0.0012     -0.0020     -0.0018      0.0000      0.0000
        23         0.0005      0.0007      0.0007      0.0000      0.0000
        24        -0.3144     -0.2465     -0.2094      0.2034      0.0180
        25         0.0007      0.0004      0.0004      0.0000      0.0000
 Ground to excited state transition velocity dipole moments (Au):
       state          X           Y           Z        Dip. S.      Osc.
         1         0.0000      0.0000      0.0000      0.0000      0.0000
         2         0.0655      0.0495      0.0455      0.0088      0.1196
         3         0.0000      0.0000      0.0000      0.0000      0.0000
         4         0.0215      0.1114      0.0904      0.0210      0.2053
         5         0.0000      0.0000      0.0000      0.0000      0.0000
         6         0.0230      0.0026      0.0090      0.0006      0.0046
         7         0.0000      0.0000      0.0000      0.0000      0.0000
         8        -0.0262     -0.0439     -0.0265      0.0033      0.0213
         9         0.0000      0.0000      0.0000      0.0000      0.0000
        10         0.0000      0.0000      0.0000      0.0000      0.0000
        11         0.0007     -0.0365     -0.0240      0.0019      0.0113
        12         0.0000      0.0001      0.0000      0.0000      0.0000
        13         0.0405     -0.0863     -0.0270      0.0098      0.0571
        14         0.0983      0.0026      0.0672      0.0142      0.0813
        15        -0.0348      0.0272      0.0130      0.0021      0.0119
        16         0.0000      0.0000      0.0000      0.0000      0.0000
        17         0.0246     -0.0205     -0.0021      0.0010      0.0057
        18         0.0346      0.0005     -0.0042      0.0012      0.0065
        19         0.0000      0.0000      0.0000      0.0000      0.0000
        20        -0.0442     -0.0627     -0.0518      0.0086      0.0444
        21         0.0438      0.0766      0.0672      0.0123      0.0635
        22         0.0001      0.0002      0.0002      0.0000      0.0000
        23        -0.0001     -0.0001     -0.0001      0.0000      0.0000
        24         0.0379      0.0300      0.0268      0.0031      0.0153
        25        -0.0001     -0.0001     -0.0001      0.0000      0.0000
 Ground to excited state transition magnetic dipole moments (Au):
       state          X           Y           Z
         1         0.0550     -0.2567      0.8223
         2         0.0711     -0.2244      0.1414
         3         0.0354     -0.6490      0.8079
         4         0.0145     -1.4922      1.8365
         5         0.3033      0.1505     -0.9886
         6         0.0829      0.0531     -0.2282
         7         0.0504     -0.6494     -0.9197
         8         0.1034      0.2461     -0.5087
         9        -0.1318     -0.3858     -0.3829
        10        -0.1547     -0.3471      0.7807
        11         0.0638      0.4580     -0.6960
        12         0.8227      0.0618     -1.0461
        13         0.5058      0.8984     -2.1095
        14         0.7842     -0.3161     -1.1358
        15        -0.1048     -0.5800      0.9303
        16         0.7480      0.5851     -0.4542
        17         0.1729      0.2763     -0.6821
        18        -0.0549      0.4111     -0.4070
        19        -0.2301     -0.2368      0.7399
        20        -0.0198      0.5483     -0.6464
        21         0.0711     -0.8432      0.9111
        22         0.0391      0.7737      0.6352
        23         0.1185      0.1273      0.6425
        24         0.0333     -0.1382      0.1076
        25        -0.2016     -0.0423      0.2516
 Ground to excited state transition velocity quadrupole moments (Au):
       state          XX          YY          ZZ          XY          XZ          YZ
         1         0.1353      0.0464     -0.0132      0.3429      0.2361     -0.0155
         2         2.4615      1.1908      0.8763      1.7178      1.4856      1.0240
         3         0.5548      0.0094     -0.0324      0.6365      0.5164     -0.0040
         4         0.8073      2.6833      1.7414      2.3535      1.9060      2.1617
         5        -0.3578      0.2790     -0.0172     -0.0716     -0.2749      0.1940
         6         0.8665      0.0636      0.1731      0.3270      0.3909      0.1337
         7         1.4188     -0.0979     -0.1380     -0.1510      0.3032      0.0331
         8        -0.9860     -1.0559     -0.5108     -1.1403     -0.7511     -0.7417
         9         0.4354     -0.1641      0.1261      0.2914      0.2502      0.1578
        10        -0.3087     -0.0161      0.0294      0.5790      0.2199     -0.0461
        11         0.0273     -0.8781     -0.4624     -0.6771     -0.4441     -0.6401
        12        -0.0952      0.3825     -0.2082      0.1113     -0.1501      0.1261
        13         1.5221     -2.0769     -0.5210     -1.1344     -0.1184     -1.1565
        14         3.6976      0.0615      1.2946      1.2319      2.2106      0.8336
        15        -1.3074      0.6561      0.2513      0.0932     -0.0898      0.4195
        16        -0.1893      0.3845     -0.2028     -0.3238     -0.2751     -0.0491
        17         0.9261     -0.4935     -0.0399     -0.0890      0.1984     -0.2224
        18         1.3001      0.0123     -0.0800      0.4257      0.2549     -0.0450
        19         0.1258     -0.1416     -0.0207      0.0879      0.1843     -0.1843
        20        -1.6606     -1.5088     -0.9976     -1.7098     -1.3989     -1.2271
        21         1.6513      1.8441      1.2945      1.9685      1.6867      1.5473
        22        -1.3527      0.1705      0.0453     -0.1806     -0.4093     -0.1350
        23        -0.4664      0.1581     -0.0028      0.2912     -0.0003      0.0014
        24         1.4239      0.7212      0.5158      1.0198      0.8683      0.6107
        25        -0.5576     -0.0361      0.0230      0.1558     -0.0402     -0.0449
 <0|del|b> * <b|rxdel|0> + <0|del|b> * <b|delr+rdel|0>
 Rotatory Strengths (R) in cgs (10**-40 erg-esu-cm/Gauss)
       state          XX          YY          ZZ    R(velocity)
         1         0.1147      0.0932      0.0158      0.0746
         2        -0.1117     -0.0819     -0.0442     -0.0793
         3         0.0468      0.0334     -0.0230      0.0191
         4        -0.0087     -0.0166     -0.0049     -0.0101
         5         0.0092      0.0028     -0.0003      0.0039
         6        -0.0125      0.0052      0.0046     -0.0009
         7         0.0116      0.0049      0.0008      0.0058
         8        -0.0675     -0.0341     -0.0278     -0.0431
         9         0.0776      0.0331      0.0278      0.0461
        10        -0.0169      0.0033     -0.0013     -0.0050
        11         0.0637      0.1067      0.0208      0.0637
        12        -0.0698     -0.1952     -0.0558     -0.1069
        13        -0.0074      0.0760      0.0496      0.0394
        14         0.0093     -0.0242     -0.0451     -0.0200
        15         0.0131     -0.0563     -0.0367     -0.0266
        16        -0.0315      0.0753      0.0705      0.0381
        17        -0.0119      0.0175      0.0122      0.0059
[...]
 Alpha virt. eigenvalues --    1.54068   1.54883   1.54959   1.55595   1.55621
 Alpha virt. eigenvalues --    1.55842   1.56163   1.56894   1.56900   1.57648
 Alpha virt. eigenvalues --    1.58035   1.58644   1.59233   1.59297   1.59579
 Alpha virt. eigenvalues --    1.59756   1.59995   1.60257   1.60424   1.60618
 Alpha virt. eigenvalues --    1.60953   1.61153   1.61492   1.61523   1.61706
 Alpha virt. eigenvalues --    1.62850   1.62958   1.63384   1.63965   1.64123
 Alpha virt. eigenvalues --    1.65195   1.65928   1.67189   1.68341   1.68510
 Alpha virt. eigenvalues --    1.68872   1.69929   1.71939   1.72700   1.73105
 Alpha virt. eigenvalues --    1.73455   1.73898   1.74175   1.74633   1.75412
 Alpha virt. eigenvalues --    1.75730   1.76290   1.76305   1.76911   1.77455
 Alpha virt. eigenvalues --    1.77706   1.78951   1.79031   1.81078   1.81525
 Alpha virt. eigenvalues --    1.81546   1.81708   1.81821   1.82073   1.82371
 Alpha virt. eigenvalues --    1.83859   1.84428   1.85076   1.85184   1.85765
 Alpha virt. eigenvalues --    1.86951   1.87030   1.87516   1.87886   1.90115
 Alpha virt. eigenvalues --    1.90232   1.90477   1.90533   1.91186   1.91532
 Alpha virt. eigenvalues --    1.92350   1.92679   1.92690   1.93709   1.93976
 Alpha virt. eigenvalues --    1.94332   1.94593   1.95093   1.95547   1.95879
 Alpha virt. eigenvalues --    1.96141   1.96162   1.96539   1.96594   1.96710
 Alpha virt. eigenvalues --    1.97505   1.97880   1.98969   1.99034   1.99238
 Alpha virt. eigenvalues --    1.99613   1.99661   1.99670   2.00012   2.00020
 Alpha virt. eigenvalues --    2.00296   2.00600   2.00928   2.01167   2.01251
 Alpha virt. eigenvalues --    2.01851   2.02142   2.03072   2.03324   2.03535
 Alpha virt. eigenvalues --    2.03604   2.04122   2.04171   2.04630   2.04653
 Alpha virt. eigenvalues --    2.05004   2.05275   2.05521   2.05953   2.06265
 Alpha virt. eigenvalues --    2.06517   2.06803   2.06844   2.08034   2.08361
 Alpha virt. eigenvalues --    2.09221   2.10116   2.10205   2.10306   2.10520
 Alpha virt. eigenvalues --    2.10539   2.10584   2.10595   2.10706   2.10714
 Alpha virt. eigenvalues --    2.10898   2.11226   2.11282   2.11585   2.12100
 Alpha virt. eigenvalues --    2.12242   2.13043   2.13074   2.13943   2.14103
 Alpha virt. eigenvalues --    2.14556   2.14922   2.15398   2.16265   2.16498
 Alpha virt. eigenvalues --    2.16874   2.17708   2.17758   2.17761   2.17767
 Alpha virt. eigenvalues --    2.17951   2.18142   2.18241   2.18885   2.19052
 Alpha virt. eigenvalues --    2.20977   2.21690   2.22399   2.22711   2.22794
 Alpha virt. eigenvalues --    2.22979   2.22980   2.23285   2.23393   2.23567
 Alpha virt. eigenvalues --    2.24407   2.24542   2.24576   2.24832   2.24872
 Alpha virt. eigenvalues --    2.25149   2.25434   2.25588   2.26022   2.26499
 Alpha virt. eigenvalues --    2.26647   2.26827   2.26828   2.27536   2.27699
 Alpha virt. eigenvalues --    2.28008   2.28377   2.28412   2.28736   2.29271
 Alpha virt. eigenvalues --    2.29541   2.29690   2.29929   2.30049   2.30296
 Alpha virt. eigenvalues --    2.30393   2.30479   2.30514   2.30727   2.30962
 Alpha virt. eigenvalues --    2.31129   2.31714   2.31727   2.31831   2.31842
 Alpha virt. eigenvalues --    2.32293   2.32319   2.32860   2.33127   2.33440
 Alpha virt. eigenvalues --    2.33968   2.34589   2.34725   2.35590   2.36397
 Alpha virt. eigenvalues --    2.37669   2.38156   2.39747   2.39763   2.39887
 Alpha virt. eigenvalues --    2.41492   2.42820   2.43719   2.43771   2.44532
 Alpha virt. eigenvalues --    2.44587   2.45057   2.45297   2.45322   2.45493
 Alpha virt. eigenvalues --    2.46770   2.47236   2.47249   2.47346   2.47465
 Alpha virt. eigenvalues --    2.47503   2.47562   2.47938   2.48008   2.48091
 Alpha virt. eigenvalues --    2.48349   2.48609   2.49176   2.49832   2.50242
 Alpha virt. eigenvalues --    2.50740   2.51008   2.51187   2.51192   2.51353
 Alpha virt. eigenvalues --    2.52311   2.52347   2.52680   2.52729   2.52794
 Alpha virt. eigenvalues --    2.52930   2.52989   2.53264   2.53409   2.53468
 Alpha virt. eigenvalues --    2.53596   2.53857   2.53868   2.54042   2.54102
 Alpha virt. eigenvalues --    2.54322   2.54489   2.54823   2.54984   2.54992
 Alpha virt. eigenvalues --    2.55177   2.55701   2.55887   2.56013   2.56128
 Alpha virt. eigenvalues --    2.58809   2.59081   2.59169   2.59383   2.60015
 Alpha virt. eigenvalues --    2.60103   2.60833   2.61018   2.61635   2.61833
 Alpha virt. eigenvalues --    2.62566   2.63273   2.63961   2.64391   2.64588
 Alpha virt. eigenvalues --    2.65201   2.66067   2.66268   2.66426   2.67808
 Alpha virt. eigenvalues --    2.67876   2.68070   2.68106   2.68652   2.69083
 Alpha virt. eigenvalues --    2.69206   2.69548   2.69874   2.70512   2.71118
 Alpha virt. eigenvalues --    2.71899   2.72695   2.75138   2.75222   2.75685
 Alpha virt. eigenvalues --    2.75775   2.76144   2.76271   2.76398   2.76479
 Alpha virt. eigenvalues --    2.76709   2.76899   2.77137   2.77173   2.77864
 Alpha virt. eigenvalues --    2.78055   2.78402   2.79719   2.80926   2.80997
 Alpha virt. eigenvalues --    2.81125   2.81374   2.81448   2.81667   2.81710
 Alpha virt. eigenvalues --    2.81734   2.81791   2.81885   2.82066   2.82226
 Alpha virt. eigenvalues --    2.82382   2.82565   2.82843   2.83395   2.84211
 Alpha virt. eigenvalues --    2.85895   2.86095   2.86758   2.87627   2.88435
 Alpha virt. eigenvalues --    2.88578   2.88933   2.91284   2.91322   2.91771
 Alpha virt. eigenvalues --    2.91802   2.91940   2.92368   2.92945   2.93182
 Alpha virt. eigenvalues --    2.94213   2.95768   2.97077   2.97098   3.02105
 Alpha virt. eigenvalues --    3.02221   3.03770   3.04141   3.05149   3.05323
 Alpha virt. eigenvalues --    3.05454   3.05700   3.05771   3.05805   3.06623
 Alpha virt. eigenvalues --    3.06823   3.07020   3.07031   3.07926   3.07988
 Alpha virt. eigenvalues --    3.08350   3.08406   3.08410   3.08454   3.08739
 Alpha virt. eigenvalues --    3.08772   3.08816   3.09068   3.09258   3.09378
 Alpha virt. eigenvalues --    3.09485   3.09898   3.10534   3.11006   3.11134
 Alpha virt. eigenvalues --    3.11340   3.12955   3.14016   3.14542   3.16051
 Alpha virt. eigenvalues --    3.17422   3.17574   3.18971   3.19159   3.22398
 Alpha virt. eigenvalues --    3.22596   3.23004   3.23789   3.26958   3.28840
 Alpha virt. eigenvalues --    3.28946   3.29650   3.30461   3.30677   3.30870
 Alpha virt. eigenvalues --    3.31455   3.33988   3.34296   3.35473   3.35974
 Alpha virt. eigenvalues --    3.41355   3.41927   3.47063   3.47454   3.50948
 Alpha virt. eigenvalues --    3.51160   3.55770   3.56156   3.60888   3.60908
 Alpha virt. eigenvalues --    3.61146   3.61164   3.61258   3.61264   3.61563
 Alpha virt. eigenvalues --    3.61610   3.61900   3.61986   3.62571   3.62685
 Alpha virt. eigenvalues --    3.63152   3.63376   3.64853   3.64932   3.65960
 Alpha virt. eigenvalues --    3.65972   3.67696   3.67801   3.71161   3.71165
 Alpha virt. eigenvalues --    3.71451   3.71471   3.71690   3.71705   3.71953
 Alpha virt. eigenvalues --    3.71963   3.72036   3.72051   3.72225   3.72238
 Alpha virt. eigenvalues --    3.72351   3.72368   3.72592   3.72654   3.73217
 Alpha virt. eigenvalues --    3.73298   3.73363   3.73544   3.73664   3.73917
 Alpha virt. eigenvalues --    3.74801   3.74992   3.75298   3.75411   3.76562
 Alpha virt. eigenvalues --    3.76663   3.84319   3.84380   3.86917   3.86932
 Alpha virt. eigenvalues --    3.87324   3.88172   3.89310   3.89549   3.95448
 Alpha virt. eigenvalues --    3.95637   3.97341   3.98315   4.05843   4.06405
 Alpha virt. eigenvalues --    4.09265   4.11360   4.11832   4.11839   4.13079
 Alpha virt. eigenvalues --    4.13162   4.14457   4.14497   4.15094   4.15103
 Alpha virt. eigenvalues --    4.17030   4.17244   4.17997   4.18218   4.18240
 Alpha virt. eigenvalues --    4.18542   4.19437   4.20747   4.23331   4.23629
 Alpha virt. eigenvalues --    4.24767   4.29718   4.31213   4.33573   4.34858
 Alpha virt. eigenvalues --    4.35082   4.35754   4.37507   4.37957   4.39335
 Alpha virt. eigenvalues --    4.39633   4.40658   4.41444   4.41830   4.41891
 Alpha virt. eigenvalues --    4.42065   4.43711   4.44308   4.44571   4.45829
 Alpha virt. eigenvalues --    4.45830   4.46558   4.46650   4.47644   4.47807
 Alpha virt. eigenvalues --    4.48814   4.50766   4.50977   4.51150   4.51180
 Alpha virt. eigenvalues --    4.52128   4.56199   4.57104   4.58103   4.62807
 Alpha virt. eigenvalues --    4.63166   4.64965   4.69365   4.81137   4.81626
 Alpha virt. eigenvalues --    4.87374   4.89103   4.97446   4.98041   5.10837
 Alpha virt. eigenvalues --    5.12199
          Condensed to atoms (all electrons):
 Mulliken atomic charges:
              1
     1  Si   0.560594
     2  C   -0.062585
     3  C    0.097056
     4  C   -0.157750
     5  H    0.067811
     6  C    0.096864
     7  C   -0.086193
     8  H    0.059127
     9  C   -0.059371
    10  H    0.064610
    11  C   -0.066576
    12  H    0.053020
    13  C   -0.036935
    14  H    0.025909
    15  C    0.108106
    16  C   -0.154504
    17  H    0.040804
    18  C    0.126637
    19  C    0.428870
    20  C   -0.636322
    21  C   -0.530687
    22  H    0.140590
    23  H    0.116776
    24  H    0.129634
    25  C   -0.525571
    26  H    0.123392
    27  H    0.117965
    28  H    0.137905
    29  C   -0.518581
    30  H    0.126846
    31  H    0.120534
    32  H    0.131417
    33  Si   0.556324
    34  C   -0.083769
    35  C    0.100462
    36  C   -0.167597
    37  H    0.064835
    38  C    0.094223
    39  C   -0.083086
    40  H    0.055229
    41  C   -0.065930
    42  H    0.058362
    43  C   -0.062587
    44  H    0.058503
    45  C   -0.084421
    46  H    0.055588
    47  C    0.107964
    48  C   -0.172944
    49  H    0.060247
    50  C    0.123529
    51  C    0.406428
    52  C   -0.627307
    53  C   -0.515220
    54  H    0.129171
    55  H    0.118616
    56  H    0.129219
    57  C   -0.521536
    58  H    0.125591
    59  H    0.119930
    60  H    0.126206
    61  C   -0.527237
    62  H    0.129046
    63  H    0.121577
    64  H    0.131188
    65  Si   0.556328
    66  C   -0.083737
    67  C    0.100458
    68  C   -0.167599
    69  H    0.064838
    70  C    0.094227
    71  C   -0.083102
    72  H    0.055229
    73  C   -0.065908
    74  H    0.058349
    75  C   -0.062577
    76  H    0.058494
    77  C   -0.084420
    78  H    0.055586
    79  C    0.107934
    80  C   -0.172931
    81  H    0.060238
    82  C    0.123580
    83  C    0.406412
    84  C   -0.627310
    85  C   -0.515217
    86  H    0.129177
    87  H    0.118620
    88  H    0.129225
    89  C   -0.521532
    90  H    0.125594
    91  H    0.119925
    92  H    0.126203
    93  C   -0.527229
    94  H    0.129045
    95  H    0.121578
    96  H    0.131190
    97  Si   0.560589
    98  C   -0.062613
    99  C    0.097044
   100  C   -0.157751
   101  H    0.067811
   102  C    0.096881
   103  C   -0.086204
   104  H    0.059130
   105  C   -0.059365
   106  H    0.064607
   107  C   -0.066575
   108  H    0.053014
   109  C   -0.036931
   110  H    0.025910
   111  C    0.108084
   112  C   -0.154500
   113  H    0.040805
   114  C    0.126619
   115  C    0.428869
   116  C   -0.636319
   117  C   -0.530685
   118  H    0.140593
   119  H    0.116780
   120  H    0.129636
   121  C   -0.525570
   122  H    0.123395
   123  H    0.117966
   124  H    0.137905
   125  C   -0.518582
   126  H    0.126846
   127  H    0.120527
   128  H    0.131418
 Sum of Mulliken atomic charges =   0.00000
 Mulliken charges with hydrogens summed into heavy atoms:
              1
     1  Si   0.560594
     2  C   -0.062585
     3  C    0.097056
     4  C   -0.089939
     6  C    0.096864
     7  C   -0.027065
     9  C    0.005239
    11  C   -0.013555
    13  C   -0.011025
    15  C    0.108106
    16  C   -0.113700
    18  C    0.126637
    19  C    0.428870
    20  C   -0.636322
    21  C   -0.143687
    25  C   -0.146310
    29  C   -0.139784
    33  Si   0.556324
    34  C   -0.083769
    35  C    0.100462
    36  C   -0.102762
    38  C    0.094223
    39  C   -0.027857
    41  C   -0.007568
    43  C   -0.004084
    45  C   -0.028833
    47  C    0.107964
    48  C   -0.112697
    50  C    0.123529
    51  C    0.406428
    52  C   -0.627307
    53  C   -0.138214
    57  C   -0.149809
    61  C   -0.145426
    65  Si   0.556328
    66  C   -0.083737
    67  C    0.100458
    68  C   -0.102762
    70  C    0.094227
    71  C   -0.027873
    73  C   -0.007559
    75  C   -0.004084
    77  C   -0.028833
    79  C    0.107934
    80  C   -0.112692
    82  C    0.123580
    83  C    0.406412
    84  C   -0.627310
    85  C   -0.138194
    89  C   -0.149810
    93  C   -0.145416
    97  Si   0.560589
    98  C   -0.062613
    99  C    0.097044
   100  C   -0.089940
   102  C    0.096881
   103  C   -0.027074
   105  C    0.005242
   107  C   -0.013561
   109  C   -0.011021
   111  C    0.108084
   112  C   -0.113695
   114  C    0.126619
   115  C    0.428869
   116  C   -0.636319
   117  C   -0.143677
   121  C   -0.146304
   125  C   -0.139791
 Sum of Mulliken charges with hydrogens summed into heavy atoms =   0.00000
 Electronic spatial extent (au):  <R**2>=         356174.8659
 Charge=              0.0000 electrons
 Dipole moment (field-independent basis, Debye):
    X=              0.0002    Y=              0.0005    Z=              0.0005  Tot=              0.0007
 Quadrupole moment (field-independent basis, Debye-Ang):
   XX=           -388.2853   YY=           -380.3767   ZZ=           -401.4450
   XY=             -4.1139   XZ=             28.6439   YZ=             22.4264
 Traceless Quadrupole moment (field-independent basis, Debye-Ang):
   XX=              1.7504   YY=              9.6590   ZZ=            -11.4093
   XY=             -4.1139   XZ=             28.6439   YZ=             22.4264
 Octapole moment (field-independent basis, Debye-Ang**2):
  XXX=         -11589.5584  YYY=          -7270.1711  ZZZ=          -6139.5616  XYY=          -3836.9718
  XXY=          -2555.6860  XXZ=          -1409.5053  XZZ=          -3702.1020  YZZ=          -2328.9764
  YYZ=          -1653.3910  XYZ=            384.5856
 Hexadecapole moment (field-independent basis, Debye-Ang**3):
 XXXX=        -270662.7294 YYYY=        -116155.7869 ZZZZ=         -78288.0156 XXXY=         -75492.1117
 XXXZ=         -55718.2616 YYYX=         -72917.6992 YYYZ=         -39427.1023 ZZZX=         -65220.9927
 ZZZY=         -42606.4139 XXYY=         -64576.0511 XXZZ=         -53238.7399 YYZZ=         -29675.7923
 XXYZ=          -8845.3508 YYXZ=         -17363.1471 ZZXY=         -21031.1022
 N-N= 1.143874394291D+04 E-N=-3.137286618165D+04  KE= 3.617978676310D+03
 Leave Link  601 at Sat Feb  2 10:03:22 2013, MaxMem= 1073741824 cpu:       8.3
 (Enter /apps/gaussian/g09_c01/g09/l9999.exe)
 1\1\GINC-CX1-15-9-1\SP\RB3LYP TD-FC\6-31G(d,p)\C64H60Si4\JMF02\02-Feb-
 2013\0\\#p scf=verytight b3lyp/6-31g(d,p) td(singlets,nstates=25) nosy
 mm\\CSD ENTRY k01071\\0,1\Si,0,9.4118847,10.36196215,8.66643619\C,0,7.
 45586038,7.41039591,5.97347302\C,0,8.22032446,6.21507133,5.87145431\C,
 0,9.39911189,6.03036596,6.61803795\H,0,9.68598932,6.72114773,7.2043722
 3\C,0,10.15408934,4.87258156,6.5252246\C,0,11.363489,4.6989474,7.27124
 246\H,0,11.65798086,5.38907381,7.85375691\C,0,12.09385517,3.5616789,7.
 15674082\H,0,12.89280557,3.4626282,7.66054656\C,0,11.6728799,2.5158723
 2,6.28834955\H,0,12.18791766,1.72015591,6.22635364\C,0,10.54607095,2.6
 4175807,5.55232483\H,0,10.28815673,1.93735696,4.96925337\C,0,9.7347788
 4,3.82151799,5.63696897\C,0,8.57423746,3.98941249,4.89822601\H,0,8.293
 65978,3.29194818,4.31695697\C,0,7.79281469,5.16314289,4.98218665\C,0,7
 .91748994,8.43898512,6.85229461\C,0,8.39889068,9.26263932,7.59389834\C
 ,0,10.45271453,11.44440437,7.58129421\H,0,11.1123279,10.89404775,7.109
 61127\H,0,10.9168749,12.10872244,8.13235196\H,0,9.8816481,11.90063829,
 6.92987059\C,0,10.53534303,9.26827771,9.66182643\H,0,9.99987391,8.7199
 8634,10.27311883\H,0,11.15720872,9.82230077,10.17861992\H,0,11.0415347
 6,8.68508067,9.059066\C,0,8.31855776,11.37181239,9.77123377\H,0,7.7416
 0265,11.94541398,9.22432883\H,0,8.8716957,11.92874064,10.35917539\H,0,
 7.76267208,10.7744644,10.31516437\Si,0,4.65372962,2.38000067,1.5292955
 8\C,0,6.60975394,5.33156691,4.22225875\C,0,5.84528986,6.5268915,4.3242
 7746\C,0,4.66650243,6.71159686,3.57769382\H,0,4.379625,6.02081509,2.99
 135954\C,0,3.91152498,7.86938126,3.67050716\C,0,2.70212532,8.04301543,
 2.9244893\H,0,2.40763346,7.35288901,2.34197486\C,0,1.97175915,9.180283
 92,3.03899094\H,0,1.17280875,9.27933462,2.53518521\C,0,2.39273442,10.2
 260905,3.90738222\H,0,1.87769666,11.02180692,3.96937813\C,0,3.51954337
 ,10.10020475,4.64340693\H,0,3.77745759,10.80460586,5.2264784\C,0,4.330
 83548,8.92044483,4.55876279\C,0,5.49137686,8.75255034,5.29750575\H,0,5
 .77195454,9.45001465,5.87877479\C,0,6.27279963,7.57881993,5.21354512\C
 ,0,6.14812438,4.3029777,3.34343715\C,0,5.66672364,3.4793235,2.60183343
 \C,0,3.61289979,1.29755845,2.61443755\H,0,2.95328642,1.84791507,3.0861
 205\H,0,3.14873942,0.63324038,2.06337981\H,0,4.18396622,0.84132453,3.2
 6586118\C,0,3.53027129,3.47368511,0.53390534\H,0,4.06574041,4.02197649
 ,-0.07738706\H,0,2.9084056,2.91966206,0.01711185\H,0,3.02407956,4.0568
 8215,1.13666577\C,0,5.74705656,1.37015044,0.42449799\H,0,6.32401167,0.
 79654885,0.97140294\H,0,5.19391862,0.81322218,-0.16344362\H,0,6.302942
 24,1.96749842,-0.1194326\Si,0,15.2449,10.362,8.66644\C,0,13.2889,7.410
 4,5.97347\C,0,14.0533,6.21507,5.87145\C,0,15.2321,6.03037,6.61804\H,0,
 15.519,6.72115,7.20437\C,0,15.9871,4.87258,6.52522\C,0,17.1965,4.69895
 ,7.27124\H,0,17.491,5.38907,7.85376\C,0,17.9269,3.56168,7.15674\H,0,18
 .7258,3.46263,7.66055\C,0,17.5059,2.51587,6.28835\H,0,18.0209,1.72016,
 6.22635\C,0,16.3791,2.64176,5.55232\H,0,16.1212,1.93736,4.96925\C,0,15
 .5678,3.82152,5.63697\C,0,14.4072,3.98941,4.89823\H,0,14.1267,3.29195,
 4.31696\C,0,13.6258,5.16314,4.98219\C,0,13.7505,8.43899,6.85229\C,0,14
 .2319,9.26264,7.5939\C,0,16.2857,11.4444,7.58129\H,0,16.9453,10.894,7.
 10961\H,0,16.7499,12.1087,8.13235\H,0,15.7146,11.9006,6.92987\C,0,16.3
 683,9.26828,9.66183\H,0,15.8329,8.71999,10.2731\H,0,16.9902,9.8223,10.
 1786\H,0,16.8745,8.68508,9.05907\C,0,14.1516,11.3718,9.77123\H,0,13.57
 46,11.9454,9.22433\H,0,14.7047,11.9287,10.3592\H,0,13.5957,10.7745,10.
 3152\Si,0,10.4867,2.38,1.5293\C,0,12.4428,5.33157,4.22226\C,0,11.6783,
 6.52689,4.32428\C,0,10.4995,6.7116,3.57769\H,0,10.2126,6.02082,2.99136
 \C,0,9.74452,7.86938,3.67051\C,0,8.53513,8.04302,2.92449\H,0,8.24063,7
 .35289,2.34197\C,0,7.80476,9.18028,3.03899\H,0,7.00581,9.27933,2.53519
 \C,0,8.22573,10.2261,3.90738\H,0,7.7107,11.0218,3.96938\C,0,9.35254,10
 .1002,4.64341\H,0,9.61046,10.8046,5.22648\C,0,10.1638,8.92044,4.55876\
 C,0,11.3244,8.75255,5.29751\H,0,11.605,9.45001,5.87877\C,0,12.1058,7.5
 7882,5.21355\C,0,11.9811,4.30298,3.34344\C,0,11.4997,3.47932,2.60183\C
 ,0,9.4459,1.29756,2.61444\H,0,8.78629,1.84792,3.08612\H,0,8.98174,0.63
 324,2.06338\H,0,10.017,0.841325,3.26586\C,0,9.36327,3.47369,0.533905\H
 ,0,9.89874,4.02198,-0.0773871\H,0,8.74141,2.91966,0.0171119\H,0,8.8570
 8,4.05688,1.13667\C,0,11.5801,1.37015,0.424498\H,0,12.157,0.796549,0.9
 71403\H,0,11.0269,0.813222,-0.163444\H,0,12.1359,1.9675,-0.119433\\Ver
 sion=EM64L-G09RevC.01\HF=-3632.2827615\RMSD=9.215e-09\PG=C01 [X(C64H60
 Si4)]\\@


 AND THIS OUR LIFE, EXEMPT FROM PUBLIC HAUNT,
 FINDS TONGUES IN TREES, BOOKS IN THE RUNNING BROOKS,
 SERMONS IN STONES, AND GOOD IN EVERYTHING.
 I WOULD NOT CHANGE IT. -- W. SHAKESPEARE
 AS YOU LIKE IT, ACT II, SCENE 1.
 Job cpu time:  4 days  1 hours 32 minutes 52.8 seconds.
 File lengths (MBytes):  RWF=   9046 Int=      0 D2E=      0 Chk=   1484 Scr=      1
 Normal termination of Gaussian 09 at Sat Feb  2 10:03:25 2013.
