 Entering Gaussian System, Link 0=g03
 Input=k01071_tips_Tv3.com
 Output=k01071_tips_Tv3.log
 Initial command:
 /apps/gaussian/g09_c01/g09/l1.exe /tmp/pbs.3764043.cx1b/Gau-25733.inp -scrdir=/tmp/pbs.3764043.cx1b/
 Entering Link 1 = /apps/gaussian/g09_c01/g09/l1.exe PID=     25741.
  
 Copyright (c) 1988,1990,1992,1993,1995,1998,2003,2009,2011,
            Gaussian, Inc.  All Rights Reserved.
  
 This is part of the Gaussian(R) 09 program.  It is based on
 the Gaussian(R) 03 system (copyright 2003, Gaussian, Inc.),
 the Gaussian(R) 98 system (copyright 1998, Gaussian, Inc.),
 the Gaussian(R) 94 system (copyright 1995, Gaussian, Inc.),
 the Gaussian 92(TM) system (copyright 1992, Gaussian, Inc.),
 the Gaussian 90(TM) system (copyright 1990, Gaussian, Inc.),
 the Gaussian 88(TM) system (copyright 1988, Gaussian, Inc.),
 the Gaussian 86(TM) system (copyright 1986, Carnegie Mellon
 University), and the Gaussian 82(TM) system (copyright 1983,
 Carnegie Mellon University). Gaussian is a federally registered
 trademark of Gaussian, Inc.
  
 This software contains proprietary and confidential information,
 including trade secrets, belonging to Gaussian, Inc.
  
 This software is provided under written license and may be
 used, copied, transmitted, or stored only in accord with that
 written license.
  
 The following legend is applicable only to US Government
 contracts under FAR:
  
                    RESTRICTED RIGHTS LEGEND
  
 Use, reproduction and disclosure by the US Government is
 subject to restrictions as set forth in subparagraphs (a)
 and (c) of the Commercial Computer Software - Restricted
 Rights clause in FAR 52.227-19.
  
 Gaussian, Inc.
 340 Quinnipiac St., Bldg. 40, Wallingford CT 06492
  
  
 ---------------------------------------------------------------
 Warning -- This program may not be used in any manner that
 competes with the business of Gaussian, Inc. or will provide
 assistance to any competitor of Gaussian, Inc.  The licensee
 of this program is prohibited from giving any competitor of
 Gaussian, Inc. access to this program.  By using this program,
 the user acknowledges that Gaussian, Inc. is engaged in the
 business of creating and licensing software in the field of
 computational chemistry and represents and warrants to the
 licensee that it is not a competitor of Gaussian, Inc. and that
 it will not use this program in any manner prohibited above.
 ---------------------------------------------------------------
  

 Cite this work as:
 Gaussian 09, Revision C.01,
 M. J. Frisch, G. W. Trucks, H. B. Schlegel, G. E. Scuseria, 
 M. A. Robb, J. R. Cheeseman, G. Scalmani, V. Barone, B. Mennucci, 
 G. A. Petersson, H. Nakatsuji, M. Caricato, X. Li, H. P. Hratchian, 
 A. F. Izmaylov, J. Bloino, G. Zheng, J. L. Sonnenberg, M. Hada, 
 M. Ehara, K. Toyota, R. Fukuda, J. Hasegawa, M. Ishida, T. Nakajima, 
 Y. Honda, O. Kitao, H. Nakai, T. Vreven, J. A. Montgomery, Jr., 
 J. E. Peralta, F. Ogliaro, M. Bearpark, J. J. Heyd, E. Brothers, 
 K. N. Kudin, V. N. Staroverov, T. Keith, R. Kobayashi, J. Normand, 
 K. Raghavachari, A. Rendell, J. C. Burant, S. S. Iyengar, J. Tomasi, 
 M. Cossi, N. Rega, J. M. Millam, M. Klene, J. E. Knox, J. B. Cross, 
 V. Bakken, C. Adamo, J. Jaramillo, R. Gomperts, R. E. Stratmann, 
 O. Yazyev, A. J. Austin, R. Cammi, C. Pomelli, J. W. Ochterski, 
 R. L. Martin, K. Morokuma, V. G. Zakrzewski, G. A. Voth, 
 P. Salvador, J. J. Dannenberg, S. Dapprich, A. D. Daniels, 
 O. Farkas, J. B. Foresman, J. V. Ortiz, J. Cioslowski, 
 and D. J. Fox, Gaussian, Inc., Wallingford CT, 2010.
 
 ******************************************
 Gaussian 09:  EM64L-G09RevC.01 23-Sep-2011
                 1-Feb-2013 
 ******************************************
 %chk=k01071_tips_Tv3.chk
 %Mem=8Gb
 %nproc=8
 Will use up to    8 processors via shared memory.
 ----------------------------------------------------------------
 #p scf=verytight b3lyp/6-31g(d,p) td(singlets,nstates=25) nosymm
 ----------------------------------------------------------------
 1/38=1/1;
 2/12=2,15=1,17=6,18=5,40=1/2;
 3/5=1,6=6,7=101,11=2,16=1,25=1,30=1,74=-5/1,2,8,3;
 4//1;
 5/5=2,17=3,38=5/2;
 8/6=1,10=2,108=25/1;
 9/41=25,42=1,48=1/14;
 6/7=2,8=2,9=2,10=2/1;
 99/5=1,9=1/99;
 Leave Link    1 at Fri Feb  1 21:50:32 2013, MaxMem= 1073741824 cpu:       0.2
 (Enter /apps/gaussian/g09_c01/g09/l101.exe)
 ----------------
 CSD ENTRY k01071
 ----------------
 Charge =  0 Multiplicity = 1
 Symbolic Z-Matrix:
 Si(PDBName=Si,ResName=UNK,ResNum=1)  9.41188   10.36196   8.66644 
 C(PDBName=C1,ResName=UNK,ResNum=1)  7.45586   7.4104    5.97347 
 C(PDBName=C2,ResName=UNK,ResNum=1)  8.22032   6.21507   5.87145 
 C(PDBName=C3,ResName=UNK,ResNum=1)  9.39911   6.03037   6.61804 
 H(PDBName=H3,ResName=UNK,ResNum=1)  9.68599   6.72115   7.20437 
 C(PDBName=C4,ResName=UNK,ResNum=1)  10.15409   4.87258   6.52522 
 C(PDBName=C5,ResName=UNK,ResNum=1)  11.36349   4.69895   7.27124 
 H(PDBName=H5,ResName=UNK,ResNum=1)  11.65798   5.38907   7.85376 
 C(PDBName=C6,ResName=UNK,ResNum=1)  12.09386   3.56168   7.15674 
 H(PDBName=H6,ResName=UNK,ResNum=1)  12.89281   3.46263   7.66055 
 C(PDBName=C7,ResName=UNK,ResNum=1)  11.67288   2.51587   6.28835 
 H(PDBName=H7,ResName=UNK,ResNum=1)  12.18792   1.72016   6.22635 
 C(PDBName=C8,ResName=UNK,ResNum=1)  10.54607   2.64176   5.55232 
 H(PDBName=H8,ResName=UNK,ResNum=1)  10.28816   1.93736   4.96925 
 C(PDBName=C9,ResName=UNK,ResNum=1)  9.73478   3.82152   5.63697 
 C(PDBName=C10,ResName=UNK,ResNum=1)  8.57424   3.98941   4.89823 
 H(PDBName=H10,ResName=UNK,ResNum=1)  8.29366   3.29195   4.31696 
 C(PDBName=C11,ResName=UNK,ResNum=1)  7.79281   5.16314   4.98219 
 C(PDBName=C12,ResName=UNK,ResNum=1)  7.91749   8.43899   6.85229 
 C(PDBName=C13,ResName=UNK,ResNum=1)  8.39889   9.26264   7.5939 
 C(PDBName=C14,ResName=UNK,ResNum=1)  10.45271   11.4444   7.58129 
 H(PDBName=H14A,ResName=UNK,ResNum=1)  11.11233   10.89405   7.10961 
 H(PDBName=H14B,ResName=UNK,ResNum=1)  10.91687   12.10872   8.13235 
 H(PDBName=H14C,ResName=UNK,ResNum=1)  9.88165   11.90064   6.92987 
 C(PDBName=C15,ResName=UNK,ResNum=1)  10.53534   9.26828   9.66183 
 H(PDBName=H15A,ResName=UNK,ResNum=1)  9.99987   8.71999   10.27312 
 H(PDBName=H15B,ResName=UNK,ResNum=1)  11.15721   9.8223    10.17862 
 H(PDBName=H15C,ResName=UNK,ResNum=1)  11.04153   8.68508   9.05907 
 C(PDBName=C16,ResName=UNK,ResNum=1)  8.31856   11.37181   9.77123 
 H(PDBName=H16A,ResName=UNK,ResNum=1)  7.7416    11.94541   9.22433 
 H(PDBName=H16B,ResName=UNK,ResNum=1)  8.8717    11.92874   10.35918 
 H(PDBName=H16C,ResName=UNK,ResNum=1)  7.76267   10.77446   10.31516 
 Si(PDBName=Si,ResName=UNK,ResNum=1)  4.65373   2.38      1.5293 
 C(PDBName=C1,ResName=UNK,ResNum=1)  6.60975   5.33157   4.22226 
 C(PDBName=C2,ResName=UNK,ResNum=1)  5.84529   6.52689   4.32428 
 C(PDBName=C3,ResName=UNK,ResNum=1)  4.6665    6.7116    3.57769 
 H(PDBName=H3,ResName=UNK,ResNum=1)  4.37962   6.02082   2.99136 
 C(PDBName=C4,ResName=UNK,ResNum=1)  3.91152   7.86938   3.67051 
 C(PDBName=C5,ResName=UNK,ResNum=1)  2.70213   8.04302   2.92449 
 H(PDBName=H5,ResName=UNK,ResNum=1)  2.40763   7.35289   2.34197 
 C(PDBName=C6,ResName=UNK,ResNum=1)  1.97176   9.18028   3.03899 
 H(PDBName=H6,ResName=UNK,ResNum=1)  1.17281   9.27933   2.53519 
 C(PDBName=C7,ResName=UNK,ResNum=1)  2.39273   10.22609   3.90738 
 H(PDBName=H7,ResName=UNK,ResNum=1)  1.8777    11.02181   3.96938 
 C(PDBName=C8,ResName=UNK,ResNum=1)  3.51954   10.1002   4.64341 
 H(PDBName=H8,ResName=UNK,ResNum=1)  3.77746   10.80461   5.22648 
 C(PDBName=C9,ResName=UNK,ResNum=1)  4.33084   8.92044   4.55876 
 C(PDBName=C10,ResName=UNK,ResNum=1)  5.49138   8.75255   5.29751 
 H(PDBName=H10,ResName=UNK,ResNum=1)  5.77195   9.45001   5.87877 
 C(PDBName=C11,ResName=UNK,ResNum=1)  6.2728    7.57882   5.21355 
 C(PDBName=C12,ResName=UNK,ResNum=1)  6.14812   4.30298   3.34344 
 C(PDBName=C13,ResName=UNK,ResNum=1)  5.66672   3.47932   2.60183 
 C(PDBName=C14,ResName=UNK,ResNum=1)  3.6129    1.29756   2.61444 
 H(PDBName=H14A,ResName=UNK,ResNum=1)  2.95329   1.84792   3.08612 
 H(PDBName=H14B,ResName=UNK,ResNum=1)  3.14874   0.63324   2.06338 
 H(PDBName=H14C,ResName=UNK,ResNum=1)  4.18397   0.84132   3.26586 
 C(PDBName=C15,ResName=UNK,ResNum=1)  3.53027   3.47369   0.53391 
 H(PDBName=H15A,ResName=UNK,ResNum=1)  4.06574   4.02198  -0.07739 
 H(PDBName=H15B,ResName=UNK,ResNum=1)  2.90841   2.91966   0.01711 
 H(PDBName=H15C,ResName=UNK,ResNum=1)  3.02408   4.05688   1.13667 
 C(PDBName=C16,ResName=UNK,ResNum=1)  5.74706   1.37015   0.4245 
 H(PDBName=H16A,ResName=UNK,ResNum=1)  6.32401   0.79655   0.9714 
 H(PDBName=H16B,ResName=UNK,ResNum=1)  5.19392   0.81322  -0.16344 
 H(PDBName=H16C,ResName=UNK,ResNum=1)  6.30294   1.9675   -0.11943 
 Si(PDBName=Si,ResName=UNK,ResNum=1)  12.0446   12.9089   19.7171 
 C(PDBName=C1,ResName=UNK,ResNum=1)  10.0886   9.95735   17.0242 
 C(PDBName=C2,ResName=UNK,ResNum=1)  10.8531   8.76203   16.9222 
 C(PDBName=C3,ResName=UNK,ResNum=1)  12.0318   8.57732   17.6687 
 H(PDBName=H3,ResName=UNK,ResNum=1)  12.3187   9.2681    18.2551 
 C(PDBName=C4,ResName=UNK,ResNum=1)  12.7868   7.41954   17.5759 
 C(PDBName=C5,ResName=UNK,ResNum=1)  13.9962   7.2459    18.3219 
 H(PDBName=H5,ResName=UNK,ResNum=1)  14.2907   7.93603   18.9045 
 C(PDBName=C6,ResName=UNK,ResNum=1)  14.7266   6.10863   18.2074 
 H(PDBName=H6,ResName=UNK,ResNum=1)  15.5255   6.00958   18.7112 
 C(PDBName=C7,ResName=UNK,ResNum=1)  14.3056   5.06283   17.339 
 H(PDBName=H7,ResName=UNK,ResNum=1)  14.8207   4.26711   17.277 
 C(PDBName=C8,ResName=UNK,ResNum=1)  13.1788   5.18871   16.603 
 H(PDBName=H8,ResName=UNK,ResNum=1)  12.9209   4.48431   16.0199 
 C(PDBName=C9,ResName=UNK,ResNum=1)  12.3675   6.36847   16.6877 
 C(PDBName=C10,ResName=UNK,ResNum=1)  11.207    6.53637   15.9489 
 H(PDBName=H10,ResName=UNK,ResNum=1)  10.9264   5.8389    15.3677 
 C(PDBName=C11,ResName=UNK,ResNum=1)  10.4256   7.7101    16.0329 
 C(PDBName=C12,ResName=UNK,ResNum=1)  10.5502   10.9859   17.903 
 C(PDBName=C13,ResName=UNK,ResNum=1)  11.0316   11.8096   18.6446 
 C(PDBName=C14,ResName=UNK,ResNum=1)  13.0855   13.9914   18.632 
 H(PDBName=H14A,ResName=UNK,ResNum=1)  13.7451   13.441    18.1603 
 H(PDBName=H14B,ResName=UNK,ResNum=1)  13.5496   14.6557   19.183 
 H(PDBName=H14C,ResName=UNK,ResNum=1)  12.5144   14.4476   17.9806 
 C(PDBName=C15,ResName=UNK,ResNum=1)  13.1681   11.8152   20.7125 
 H(PDBName=H15A,ResName=UNK,ResNum=1)  12.6326   11.2669   21.3238 
 H(PDBName=H15B,ResName=UNK,ResNum=1)  13.7899   12.3693   21.2293 
 H(PDBName=H15C,ResName=UNK,ResNum=1)  13.6743   11.232    20.1098 
 C(PDBName=C16,ResName=UNK,ResNum=1)  10.9513   13.9188   20.8219 
 H(PDBName=H16A,ResName=UNK,ResNum=1)  10.3743   14.4924   20.275 
 H(PDBName=H16B,ResName=UNK,ResNum=1)  11.5044   14.4757   21.4099 
 H(PDBName=H16C,ResName=UNK,ResNum=1)  10.3954   13.3214   21.3659 
 Si(PDBName=Si,ResName=UNK,ResNum=1)  7.28647   4.92695   12.58 
 C(PDBName=C1,ResName=UNK,ResNum=1)  9.24249   7.87852   15.273 
 C(PDBName=C2,ResName=UNK,ResNum=1)  8.47803   9.07385   15.375 
 C(PDBName=C3,ResName=UNK,ResNum=1)  7.29924   9.25855   14.6284 
 H(PDBName=H3,ResName=UNK,ResNum=1)  7.01236   8.56777   14.0421 
 C(PDBName=C4,ResName=UNK,ResNum=1)  6.54426   10.4163   14.7212 
 C(PDBName=C5,ResName=UNK,ResNum=1)  5.33486   10.59     13.9752 
 H(PDBName=H5,ResName=UNK,ResNum=1)  5.04037   9.89984   13.3927 
 C(PDBName=C6,ResName=UNK,ResNum=1)  4.6045    11.7272   14.0897 
 H(PDBName=H6,ResName=UNK,ResNum=1)  3.80555   11.8263   13.5859 
 C(PDBName=C7,ResName=UNK,ResNum=1)  5.02547   12.773    14.9581 
 H(PDBName=H7,ResName=UNK,ResNum=1)  4.51043   13.5688   15.0201 
 C(PDBName=C8,ResName=UNK,ResNum=1)  6.15228   12.6472   15.6941 
 H(PDBName=H8,ResName=UNK,ResNum=1)  6.41019   13.3516   16.2772 
 C(PDBName=C9,ResName=UNK,ResNum=1)  6.96357   11.4674   15.6095 
 C(PDBName=C10,ResName=UNK,ResNum=1)  8.12411   11.2995   16.3482 
 H(PDBName=H10,ResName=UNK,ResNum=1)  8.40469   11.997    16.9295 
 C(PDBName=C11,ResName=UNK,ResNum=1)  8.90554   10.1258   16.2642 
 C(PDBName=C12,ResName=UNK,ResNum=1)  8.78086   6.84993   14.3941 
 C(PDBName=C13,ResName=UNK,ResNum=1)  8.29946   6.02628   13.6525 
 C(PDBName=C14,ResName=UNK,ResNum=1)  6.24564   3.84451   13.6651 
 H(PDBName=H14A,ResName=UNK,ResNum=1)  5.58602   4.39487   14.1368 
 H(PDBName=H14B,ResName=UNK,ResNum=1)  5.78148   3.18019   13.1141 
 H(PDBName=H14C,ResName=UNK,ResNum=1)  6.8167    3.38828   14.3166 
 C(PDBName=C15,ResName=UNK,ResNum=1)  6.16301   6.02064   11.5846 
 H(PDBName=H15A,ResName=UNK,ResNum=1)  6.69848   6.56893   10.9733 
 H(PDBName=H15B,ResName=UNK,ResNum=1)  5.54114   5.46662   11.0678 
 H(PDBName=H15C,ResName=UNK,ResNum=1)  5.65682   6.60384   12.1874 
 C(PDBName=C16,ResName=UNK,ResNum=1)  8.37979   3.9171    11.4752 
 H(PDBName=H16A,ResName=UNK,ResNum=1)  8.95675   3.3435    12.0221 
 H(PDBName=H16B,ResName=UNK,ResNum=1)  7.82666   3.36018   10.8873 
 H(PDBName=H16C,ResName=UNK,ResNum=1)  8.93568   4.51445   10.9313 
 
 NAtoms=    128 NQM=        0 NQMF=       0 NMMI=    128 NMMIF=      0
                NMic=       0 NMicF=      0.
                    Isotopes and Nuclear Properties:
 (Nuclear quadrupole moments (NQMom) in fm**2, nuclear magnetic moments (NMagM)
  in nuclear magnetons)

  Atom         1           2           3           4           5           6           7           8           9          10
 IAtWgt=          28          12          12          12           1          12          12           1          12           1
 AtmWgt=  27.9769284  12.0000000  12.0000000  12.0000000   1.0078250  12.0000000  12.0000000   1.0078250  12.0000000   1.0078250
 NucSpn=           0           0           0           0           1           0           0           1           0           1
 AtZEff=   0.0000000   0.0000000   0.0000000   0.0000000   0.0000000   0.0000000   0.0000000   0.0000000   0.0000000   0.0000000
 NQMom=    0.0000000   0.0000000   0.0000000   0.0000000   0.0000000   0.0000000   0.0000000   0.0000000   0.0000000   0.0000000
 NMagM=    0.0000000   0.0000000   0.0000000   0.0000000   2.7928460   0.0000000   0.0000000   2.7928460   0.0000000   2.7928460

  Atom        11          12          13          14          15          16          17          18          19          20
 IAtWgt=          12           1          12           1          12          12           1          12          12          12
 AtmWgt=  12.0000000   1.0078250  12.0000000   1.0078250  12.0000000  12.0000000   1.0078250  12.0000000  12.0000000  12.0000000
 NucSpn=           0           1           0           1           0           0           1           0           0           0
 AtZEff=   0.0000000   0.0000000   0.0000000   0.0000000   0.0000000   0.0000000   0.0000000   0.0000000   0.0000000   0.0000000
 NQMom=    0.0000000   0.0000000   0.0000000   0.0000000   0.0000000   0.0000000   0.0000000   0.0000000   0.0000000   0.0000000
 NMagM=    0.0000000   2.7928460   0.0000000   2.7928460   0.0000000   0.0000000   2.7928460   0.0000000   0.0000000   0.0000000

  Atom        21          22          23          24          25          26          27          28          29          30
 IAtWgt=          12           1           1           1          12           1           1           1          12           1
 AtmWgt=  12.0000000   1.0078250   1.0078250   1.0078250  12.0000000   1.0078250   1.0078250   1.0078250  12.0000000   1.0078250
 NucSpn=           0           1           1           1           0           1           1           1           0           1
 AtZEff=   0.0000000   0.0000000   0.0000000   0.0000000   0.0000000   0.0000000   0.0000000   0.0000000   0.0000000   0.0000000
 NQMom=    0.0000000   0.0000000   0.0000000   0.0000000   0.0000000   0.0000000   0.0000000   0.0000000   0.0000000   0.0000000
 NMagM=    0.0000000   2.7928460   2.7928460   2.7928460   0.0000000   2.7928460   2.7928460   2.7928460   0.0000000   2.7928460

  Atom        31          32          33          34          35          36          37          38          39          40
 IAtWgt=           1           1          28          12          12          12           1          12          12           1
 AtmWgt=   1.0078250   1.0078250  27.9769284  12.0000000  12.0000000  12.0000000   1.0078250  12.0000000  12.0000000   1.0078250
 NucSpn=           1           1           0           0           0           0           1           0           0           1
 AtZEff=   0.0000000   0.0000000   0.0000000   0.0000000   0.0000000   0.0000000   0.0000000   0.0000000   0.0000000   0.0000000
 NQMom=    0.0000000   0.0000000   0.0000000   0.0000000   0.0000000   0.0000000   0.0000000   0.0000000   0.0000000   0.0000000
 NMagM=    2.7928460   2.7928460   0.0000000   0.0000000   0.0000000   0.0000000   2.7928460   0.0000000   0.0000000   2.7928460

  Atom        41          42          43          44          45          46          47          48          49          50
 IAtWgt=          12           1          12           1          12           1          12          12           1          12
 AtmWgt=  12.0000000   1.0078250  12.0000000   1.0078250  12.0000000   1.0078250  12.0000000  12.0000000   1.0078250  12.0000000
 NucSpn=           0           1           0           1           0           1           0           0           1           0
 AtZEff=   0.0000000   0.0000000   0.0000000   0.0000000   0.0000000   0.0000000   0.0000000   0.0000000   0.0000000   0.0000000
 NQMom=    0.0000000   0.0000000   0.0000000   0.0000000   0.0000000   0.0000000   0.0000000   0.0000000   0.0000000   0.0000000
 NMagM=    0.0000000   2.7928460   0.0000000   2.7928460   0.0000000   2.7928460   0.0000000   0.0000000   2.7928460   0.0000000

  Atom        51          52          53          54          55          56          57          58          59          60
 IAtWgt=          12          12          12           1           1           1          12           1           1           1
 AtmWgt=  12.0000000  12.0000000  12.0000000   1.0078250   1.0078250   1.0078250  12.0000000   1.0078250   1.0078250   1.0078250
 NucSpn=           0           0           0           1           1           1           0           1           1           1
 AtZEff=   0.0000000   0.0000000   0.0000000   0.0000000   0.0000000   0.0000000   0.0000000   0.0000000   0.0000000   0.0000000
 NQMom=    0.0000000   0.0000000   0.0000000   0.0000000   0.0000000   0.0000000   0.0000000   0.0000000   0.0000000   0.0000000
 NMagM=    0.0000000   0.0000000   0.0000000   2.7928460   2.7928460   2.7928460   0.0000000   2.7928460   2.7928460   2.7928460

  Atom        61          62          63          64          65          66          67          68          69          70
 IAtWgt=          12           1           1           1          28          12          12          12           1          12
 AtmWgt=  12.0000000   1.0078250   1.0078250   1.0078250  27.9769284  12.0000000  12.0000000  12.0000000   1.0078250  12.0000000
 NucSpn=           0           1           1           1           0           0           0           0           1           0
 AtZEff=   0.0000000   0.0000000   0.0000000   0.0000000   0.0000000   0.0000000   0.0000000   0.0000000   0.0000000   0.0000000
 NQMom=    0.0000000   0.0000000   0.0000000   0.0000000   0.0000000   0.0000000   0.0000000   0.0000000   0.0000000   0.0000000
 NMagM=    0.0000000   2.7928460   2.7928460   2.7928460   0.0000000   0.0000000   0.0000000   0.0000000   2.7928460   0.0000000

  Atom        71          72          73          74          75          76          77          78          79          80
 IAtWgt=          12           1          12           1          12           1          12           1          12          12
 AtmWgt=  12.0000000   1.0078250  12.0000000   1.0078250  12.0000000   1.0078250  12.0000000   1.0078250  12.0000000  12.0000000
 NucSpn=           0           1           0           1           0           1           0           1           0           0
 AtZEff=   0.0000000   0.0000000   0.0000000   0.0000000   0.0000000   0.0000000   0.0000000   0.0000000   0.0000000   0.0000000
 NQMom=    0.0000000   0.0000000   0.0000000   0.0000000   0.0000000   0.0000000   0.0000000   0.0000000   0.0000000   0.0000000
 NMagM=    0.0000000   2.7928460   0.0000000   2.7928460   0.0000000   2.7928460   0.0000000   2.7928460   0.0000000   0.0000000

  Atom        81          82          83          84          85          86          87          88          89          90
 IAtWgt=           1          12          12          12          12           1           1           1          12           1
 AtmWgt=   1.0078250  12.0000000  12.0000000  12.0000000  12.0000000   1.0078250   1.0078250   1.0078250  12.0000000   1.0078250
 NucSpn=           1           0           0           0           0           1           1           1           0           1
 AtZEff=   0.0000000   0.0000000   0.0000000   0.0000000   0.0000000   0.0000000   0.0000000   0.0000000   0.0000000   0.0000000
 NQMom=    0.0000000   0.0000000   0.0000000   0.0000000   0.0000000   0.0000000   0.0000000   0.0000000   0.0000000   0.0000000
 NMagM=    2.7928460   0.0000000   0.0000000   0.0000000   0.0000000   2.7928460   2.7928460   2.7928460   0.0000000   2.7928460

  Atom        91          92          93          94          95          96          97          98          99         100
 IAtWgt=           1           1          12           1           1           1          28          12          12          12
 AtmWgt=   1.0078250   1.0078250  12.0000000   1.0078250   1.0078250   1.0078250  27.9769284  12.0000000  12.0000000  12.0000000
 NucSpn=           1           1           0           1           1           1           0           0           0           0
 AtZEff=   0.0000000   0.0000000   0.0000000   0.0000000   0.0000000   0.0000000   0.0000000   0.0000000   0.0000000   0.0000000
 NQMom=    0.0000000   0.0000000   0.0000000   0.0000000   0.0000000   0.0000000   0.0000000   0.0000000   0.0000000   0.0000000
 NMagM=    2.7928460   2.7928460   0.0000000   2.7928460   2.7928460   2.7928460   0.0000000   0.0000000   0.0000000   0.0000000

  Atom       101         102         103         104         105         106         107         108         109         110
 IAtWgt=           1          12          12           1          12           1          12           1          12           1
 AtmWgt=   1.0078250  12.0000000  12.0000000   1.0078250  12.0000000   1.0078250  12.0000000   1.0078250  12.0000000   1.0078250
 NucSpn=           1           0           0           1           0           1           0           1           0           1
 AtZEff=   0.0000000   0.0000000   0.0000000   0.0000000   0.0000000   0.0000000   0.0000000   0.0000000   0.0000000   0.0000000
 NQMom=    0.0000000   0.0000000   0.0000000   0.0000000   0.0000000   0.0000000   0.0000000   0.0000000   0.0000000   0.0000000
 NMagM=    2.7928460   0.0000000   0.0000000   2.7928460   0.0000000   2.7928460   0.0000000   2.7928460   0.0000000   2.7928460

  Atom       111         112         113         114         115         116         117         118         119         120
 IAtWgt=          12          12           1          12          12          12          12           1           1           1
 AtmWgt=  12.0000000  12.0000000   1.0078250  12.0000000  12.0000000  12.0000000  12.0000000   1.0078250   1.0078250   1.0078250
 NucSpn=           0           0           1           0           0           0           0           1           1           1
 AtZEff=   0.0000000   0.0000000   0.0000000   0.0000000   0.0000000   0.0000000   0.0000000   0.0000000   0.0000000   0.0000000
 NQMom=    0.0000000   0.0000000   0.0000000   0.0000000   0.0000000   0.0000000   0.0000000   0.0000000   0.0000000   0.0000000
 NMagM=    0.0000000   0.0000000   2.7928460   0.0000000   0.0000000   0.0000000   0.0000000   2.7928460   2.7928460   2.7928460

  Atom       121         122         123         124         125         126         127         128
 IAtWgt=          12           1           1           1          12           1           1           1
 AtmWgt=  12.0000000   1.0078250   1.0078250   1.0078250  12.0000000   1.0078250   1.0078250   1.0078250
 NucSpn=           0           1           1           1           0           1           1           1
 AtZEff=   0.0000000   0.0000000   0.0000000   0.0000000   0.0000000   0.0000000   0.0000000   0.0000000
 NQMom=    0.0000000   0.0000000   0.0000000   0.0000000   0.0000000   0.0000000   0.0000000   0.0000000
 NMagM=    0.0000000   2.7928460   2.7928460   2.7928460   0.0000000   2.7928460   2.7928460   2.7928460
 Residue   1 PDB Number     1_0 UNK charge    0.00000000 ave dist        0.000
 Leave Link  101 at Fri Feb  1 21:50:32 2013, MaxMem= 1073741824 cpu:       0.8
 (Enter /apps/gaussian/g09_c01/g09/l202.exe)
 Symmetry turned off by external request.
 Stoichiometry    C64H60Si4
 Framework group  C1[X(C64H60Si4)]
 Deg. of freedom   378
 Full point group                 C1      NOp   1
                          Input orientation:                          
 ---------------------------------------------------------------------
 Center     Atomic      Atomic             Coordinates (Angstroms)
 Number     Number       Type             X           Y           Z
 ---------------------------------------------------------------------
      1         14           0        9.411885   10.361962    8.666436
      2          6           0        7.455860    7.410396    5.973473
      3          6           0        8.220324    6.215071    5.871454
      4          6           0        9.399112    6.030366    6.618038
      5          1           0        9.685989    6.721148    7.204372
      6          6           0       10.154089    4.872582    6.525225
      7          6           0       11.363489    4.698947    7.271242
      8          1           0       11.657981    5.389074    7.853757
      9          6           0       12.093855    3.561679    7.156741
     10          1           0       12.892806    3.462628    7.660547
     11          6           0       11.672880    2.515872    6.288350
     12          1           0       12.187918    1.720156    6.226354
     13          6           0       10.546071    2.641758    5.552325
     14          1           0       10.288157    1.937357    4.969253
     15          6           0        9.734779    3.821518    5.636969
     16          6           0        8.574237    3.989412    4.898226
     17          1           0        8.293660    3.291948    4.316957
     18          6           0        7.792815    5.163143    4.982187
     19          6           0        7.917490    8.438985    6.852295
     20          6           0        8.398891    9.262639    7.593898
     21          6           0       10.452715   11.444404    7.581294
     22          1           0       11.112328   10.894048    7.109611
     23          1           0       10.916875   12.108722    8.132352
     24          1           0        9.881648   11.900638    6.929871
     25          6           0       10.535343    9.268278    9.661826
     26          1           0        9.999874    8.719986   10.273119
     27          1           0       11.157209    9.822301   10.178620
     28          1           0       11.041535    8.685081    9.059066
     29          6           0        8.318558   11.371812    9.771234
     30          1           0        7.741603   11.945414    9.224329
     31          1           0        8.871696   11.928741   10.359175
     32          1           0        7.762672   10.774464   10.315164
     33         14           0        4.653730    2.380001    1.529296
     34          6           0        6.609754    5.331567    4.222259
     35          6           0        5.845290    6.526892    4.324277
     36          6           0        4.666502    6.711597    3.577694
     37          1           0        4.379625    6.020815    2.991360
     38          6           0        3.911525    7.869381    3.670507
     39          6           0        2.702125    8.043015    2.924489
     40          1           0        2.407633    7.352889    2.341975
     41          6           0        1.971759    9.180284    3.038991
     42          1           0        1.172809    9.279335    2.535185
     43          6           0        2.392734   10.226091    3.907382
     44          1           0        1.877697   11.021807    3.969378
     45          6           0        3.519543   10.100205    4.643407
     46          1           0        3.777458   10.804606    5.226478
     47          6           0        4.330835    8.920445    4.558763
     48          6           0        5.491377    8.752550    5.297506
     49          1           0        5.771955    9.450015    5.878775
     50          6           0        6.272800    7.578820    5.213545
     51          6           0        6.148124    4.302978    3.343437
     52          6           0        5.666724    3.479324    2.601833
     53          6           0        3.612900    1.297558    2.614438
     54          1           0        2.953286    1.847915    3.086121
     55          1           0        3.148739    0.633240    2.063380
     56          1           0        4.183966    0.841325    3.265861
     57          6           0        3.530271    3.473685    0.533905
     58          1           0        4.065740    4.021976   -0.077387
     59          1           0        2.908406    2.919662    0.017112
     60          1           0        3.024080    4.056882    1.136666
     61          6           0        5.747057    1.370150    0.424498
     62          1           0        6.324012    0.796549    0.971403
     63          1           0        5.193919    0.813222   -0.163444
     64          1           0        6.302942    1.967498   -0.119433
     65         14           0       12.044600   12.908900   19.717100
     66          6           0       10.088600    9.957350   17.024200
     67          6           0       10.853100    8.762030   16.922200
     68          6           0       12.031800    8.577320   17.668700
     69          1           0       12.318700    9.268100   18.255100
     70          6           0       12.786800    7.419540   17.575900
     71          6           0       13.996200    7.245900   18.321900
     72          1           0       14.290700    7.936030   18.904500
     73          6           0       14.726600    6.108630   18.207400
     74          1           0       15.525500    6.009580   18.711200
     75          6           0       14.305600    5.062830   17.339000
     76          1           0       14.820700    4.267110   17.277000
     77          6           0       13.178800    5.188710   16.603000
     78          1           0       12.920900    4.484310   16.019900
     79          6           0       12.367500    6.368470   16.687700
     80          6           0       11.207000    6.536370   15.948900
     81          1           0       10.926400    5.838900   15.367700
     82          6           0       10.425600    7.710100   16.032900
     83          6           0       10.550200   10.985900   17.903000
     84          6           0       11.031600   11.809600   18.644600
     85          6           0       13.085500   13.991400   18.632000
     86          1           0       13.745100   13.441000   18.160300
     87          1           0       13.549600   14.655700   19.183000
     88          1           0       12.514400   14.447600   17.980600
     89          6           0       13.168100   11.815200   20.712500
     90          1           0       12.632600   11.266900   21.323800
     91          1           0       13.789900   12.369300   21.229300
     92          1           0       13.674300   11.232000   20.109800
     93          6           0       10.951300   13.918800   20.821900
     94          1           0       10.374300   14.492400   20.275000
     95          1           0       11.504400   14.475700   21.409900
     96          1           0       10.395400   13.321400   21.365900
     97         14           0        7.286470    4.926950   12.580000
     98          6           0        9.242490    7.878520   15.273000
     99          6           0        8.478030    9.073850   15.375000
    100          6           0        7.299240    9.258550   14.628400
    101          1           0        7.012360    8.567770   14.042100
    102          6           0        6.544260   10.416300   14.721200
    103          6           0        5.334860   10.590000   13.975200
    104          1           0        5.040370    9.899840   13.392700
    105          6           0        4.604500   11.727200   14.089700
    106          1           0        3.805550   11.826300   13.585900
    107          6           0        5.025470   12.773000   14.958100
    108          1           0        4.510430   13.568800   15.020100
    109          6           0        6.152280   12.647200   15.694100
    110          1           0        6.410190   13.351600   16.277200
    111          6           0        6.963570   11.467400   15.609500
    112          6           0        8.124110   11.299500   16.348200
    113          1           0        8.404690   11.997000   16.929500
    114          6           0        8.905540   10.125800   16.264200
    115          6           0        8.780860    6.849930   14.394100
    116          6           0        8.299460    6.026280   13.652500
    117          6           0        6.245640    3.844510   13.665100
    118          1           0        5.586020    4.394870   14.136800
    119          1           0        5.781480    3.180190   13.114100
    120          1           0        6.816700    3.388280   14.316600
    121          6           0        6.163010    6.020640   11.584600
    122          1           0        6.698480    6.568930   10.973300
    123          1           0        5.541140    5.466620   11.067800
    124          1           0        5.656820    6.603840   12.187400
    125          6           0        8.379790    3.917100   11.475200
    126          1           0        8.956750    3.343500   12.022100
    127          1           0        7.826660    3.360180   10.887300
    128          1           0        8.935680    4.514450   10.931300
 ---------------------------------------------------------------------
 Rotational constants (GHZ):      0.0430533      0.0110648      0.0098559
 Leave Link  202 at Fri Feb  1 21:50:32 2013, MaxMem= 1073741824 cpu:       0.1
 (Enter /apps/gaussian/g09_c01/g09/l301.exe)
 Standard basis: 6-31G(d,p) (6D, 7F)
 Ernie: Thresh=  0.10000D-02 Tol=  0.10000D-05 Strict=F.
 Integral buffers will be    131072 words long.
 Raffenetti 2 integral format.
 Two-electron integral symmetry is turned off.
  1336 basis functions,  2420 primitive gaussians,  1336 cartesian basis functions
   250 alpha electrons      250 beta electrons
       nuclear repulsion energy      9702.4474542736 Hartrees.
 IExCor=  402 DFT=T Ex+Corr=B3LYP ExCW=0 ScaHFX=  0.200000
 ScaDFX=  0.800000  0.720000  1.000000  0.810000 ScalE2=  1.000000  1.000000
 IRadAn=      0 IRanWt=     -1 IRanGd=            0 ICorTp=0
 NAtoms=  128 NActive=  128 NUniq=  128 SFac= 1.00D+00 NAtFMM=   60 NAOKFM=T Big=T
 Leave Link  301 at Fri Feb  1 21:50:33 2013, MaxMem= 1073741824 cpu:       0.4
 (Enter /apps/gaussian/g09_c01/g09/l302.exe)
 NPDir=0 NMtPBC=     1 NCelOv=     1 NCel=       1 NClECP=     1 NCelD=      1
         NCelK=      1 NCelE2=     1 NClLst=     1 CellRange=     0.0.
 One-electron integrals computed using PRISM.
 NBasis=  1336 RedAO= T  NBF=  1336
 NBsUse=  1336 1.00D-06 NBFU=  1336
 Precomputing XC quadrature grid using
 IXCGrd= 2 IRadAn=           0 IRanWt=          -1 IRanGd=           0 AccXCQ= 0.00D+00.
 NRdTot=    8434 NPtTot=     1080908 NUsed=     1141623 NTot=     1141655
 NSgBfM=   840   846   847   847   847 NAtAll=   128   116.
 Leave Link  302 at Fri Feb  1 21:50:43 2013, MaxMem= 1073741824 cpu:      86.1
 (Enter /apps/gaussian/g09_c01/g09/l308.exe)
 Leave Link  308 at Fri Feb  1 21:50:44 2013, MaxMem= 1073741824 cpu:       5.2
 (Enter /apps/gaussian/g09_c01/g09/l303.exe)
 DipDrv:  MaxL=1.
 Leave Link  303 at Fri Feb  1 21:50:44 2013, MaxMem= 1073741824 cpu:       3.2
 (Enter /apps/gaussian/g09_c01/g09/l401.exe)
 Harris functional with IExCor=  402 diagonalized for initial guess.
 ExpMin= 7.78D-02 ExpMax= 1.61D+04 ExpMxC= 2.43D+03 IAcc=2 IRadAn=         4 AccDes= 0.00D+00
 HarFok:  IExCor=  402 AccDes= 0.00D+00 IRadAn=         4 IDoV= 1
 ScaDFX=  1.000000  1.000000  1.000000  1.000000
 FoFCou: FMM=F IPFlag=           0 FMFlag=      100000 FMFlg1=        2001
         NFxFlg=           0 DoJE=T BraDBF=F KetDBF=T FulRan=T
         Omega=  0.000000  0.000000  1.000000  0.000000  0.000000 ICntrl=     500 IOpCl=  0
         NMat0=    1 NMatS0=    1 NMatT0=    0 NMatD0=    1 NMtDS0=    0 NMtDT0=    0
         I1Cent=           4 NGrid=           0.
 Symmetry not used in FoFCou.
 Harris En= -3633.12732565627    
 Leave Link  401 at Fri Feb  1 21:50:58 2013, MaxMem= 1073741824 cpu:     108.0
 (Enter /apps/gaussian/g09_c01/g09/l502.exe)
 Closed shell SCF:
 Requested convergence on RMS density matrix=1.00D-08 within 128 cycles.
 Requested convergence on MAX density matrix=1.00D-06.
 Requested convergence on             energy=1.00D-06.
 No special actions if energy rises.
 Using DIIS extrapolation, IDIIS=  1040.
 Two-electron integral symmetry not used.
      1140458 words used for storage of precomputed grid.
 IEnd=     6532252 IEndB=     6532252 NGot=  1073741824 MDV=  1069012445
 LenX=  1069012445 LenY=  1067226213
 Fock matrices will be formed incrementally for  20 cycles.
 Integral accuracy reduced to 1.0D-05 until final iterations.

 Cycle   1  Pass 0  IDiag  1:
 FoFCou: FMM=T IPFlag=           0 FMFlag=      100000 FMFlg1=        2001
         NFxFlg=           0 DoJE=F BraDBF=F KetDBF=F FulRan=T
         Omega=  0.000000  0.000000  1.000000  0.000000  0.000000 ICntrl=       0 IOpCl=  0
         NMat0=    1 NMatS0=    1 NMatT0=    0 NMatD0=    1 NMtDS0=    0 NMtDT0=    0
         I1Cent=           0 NGrid=           0.
 Symmetry not used in FoFCou.
 FMM levels:  10  Number of levels for PrismC:   9
 E= -3629.84377735036    
 DIIS: error= 4.81D-02 at cycle   1 NSaved=   1.
 NSaved= 1 IEnMin= 1 EnMin= -3629.84377735036     IErMin= 1 ErrMin= 4.81D-02
 ErrMax= 4.81D-02 EMaxC= 1.00D-01 BMatC= 2.39D+00 BMatP= 2.39D+00
 IDIUse=3 WtCom= 5.19D-01 WtEn= 4.81D-01
 Coeff-Com:  0.100D+01
 Coeff-En:   0.100D+01
 Coeff:      0.100D+01
 Gap=     0.084 Goal=   None    Shift=    0.000
 GapD=    0.084 DampG=0.500 DampE=0.500 DampFc=0.2500 IDamp=-1.
 Damping current iteration by 2.50D-01
 RMSDP=2.84D-03 MaxDP=1.78D-01              OVMax= 2.15D-01

 Cycle   2  Pass 0  IDiag  1:
 RMSU=  4.67D-04    CP:  9.74D-01
 E= -3630.73371235520     Delta-E=       -0.889935004843 Rises=F Damp=T
 DIIS: error= 2.41D-02 at cycle   2 NSaved=   2.
 NSaved= 2 IEnMin= 2 EnMin= -3630.73371235520     IErMin= 2 ErrMin= 2.41D-02
 ErrMax= 2.41D-02 EMaxC= 1.00D-01 BMatC= 6.79D-01 BMatP= 2.39D+00
 IDIUse=3 WtCom= 7.59D-01 WtEn= 2.41D-01
 Coeff-Com: -0.102D+01 0.202D+01
 Coeff-En:   0.000D+00 0.100D+01
 Coeff:     -0.772D+00 0.177D+01
 Gap=     0.089 Goal=   None    Shift=    0.000
 RMSDP=1.48D-03 MaxDP=1.24D-01 DE=-8.90D-01 OVMax= 1.63D-01

 Cycle   3  Pass 0  IDiag  1:
 RMSU=  5.48D-04    CP:  9.06D-01  2.63D+00
 E= -3632.21133434890     Delta-E=       -1.477621993694 Rises=F Damp=F
 DIIS: error= 1.16D-02 at cycle   3 NSaved=   3.
 NSaved= 3 IEnMin= 3 EnMin= -3632.21133434890     IErMin= 3 ErrMin= 1.16D-02
 ErrMax= 1.16D-02 EMaxC= 1.00D-01 BMatC= 8.97D-02 BMatP= 6.79D-01
 IDIUse=3 WtCom= 8.84D-01 WtEn= 1.16D-01
 Coeff-Com: -0.399D+00 0.867D+00 0.533D+00
 Coeff-En:   0.000D+00 0.000D+00 0.100D+01
 Coeff:     -0.353D+00 0.766D+00 0.587D+00
 Gap=     0.076 Goal=   None    Shift=    0.000
 RMSDP=4.92D-04 MaxDP=2.82D-02 DE=-1.48D+00 OVMax= 1.06D-01

 Cycle   4  Pass 0  IDiag  1:
 RMSU=  2.99D-04    CP:  9.12D-01  2.51D+00  6.95D-01
 E= -3632.22480827397     Delta-E=       -0.013473925075 Rises=F Damp=F
 DIIS: error= 1.04D-02 at cycle   4 NSaved=   4.
 NSaved= 4 IEnMin= 4 EnMin= -3632.22480827397     IErMin= 4 ErrMin= 1.04D-02
 ErrMax= 1.04D-02 EMaxC= 1.00D-01 BMatC= 8.03D-02 BMatP= 8.97D-02
 IDIUse=3 WtCom= 8.96D-01 WtEn= 1.04D-01
 Coeff-Com: -0.332D-01 0.139D+00 0.475D+00 0.419D+00
 Coeff-En:   0.000D+00 0.000D+00 0.474D+00 0.526D+00
 Coeff:     -0.298D-01 0.124D+00 0.475D+00 0.431D+00
 Gap=     0.073 Goal=   None    Shift=    0.000
 RMSDP=2.46D-04 MaxDP=1.98D-02 DE=-1.35D-02 OVMax= 5.01D-02

 Cycle   5  Pass 0  IDiag  1:
 RMSU=  7.99D-05    CP:  9.13D-01  2.47D+00  8.04D-01  5.28D-01
 E= -3632.31543033620     Delta-E=       -0.090622062235 Rises=F Damp=F
 DIIS: error= 1.97D-03 at cycle   5 NSaved=   5.
 NSaved= 5 IEnMin= 5 EnMin= -3632.31543033620     IErMin= 5 ErrMin= 1.97D-03
 ErrMax= 1.97D-03 EMaxC= 1.00D-01 BMatC= 4.45D-03 BMatP= 8.03D-02
 IDIUse=3 WtCom= 9.80D-01 WtEn= 1.97D-02
 Coeff-Com:  0.242D-01-0.123D-01 0.236D+00 0.267D+00 0.485D+00
 Coeff-En:   0.000D+00 0.000D+00 0.000D+00 0.000D+00 0.100D+01
 Coeff:      0.237D-01-0.121D-01 0.232D+00 0.262D+00 0.495D+00
 Gap=     0.072 Goal=   None    Shift=    0.000
 RMSDP=7.19D-05 MaxDP=9.00D-03 DE=-9.06D-02 OVMax= 1.38D-02

 Cycle   6  Pass 0  IDiag  1:
 RMSU=  2.95D-05    CP:  9.12D-01  2.48D+00  8.31D-01  5.25D-01  5.27D-01
 E= -3632.31934946603     Delta-E=       -0.003919129826 Rises=F Damp=F
 DIIS: error= 6.28D-04 at cycle   6 NSaved=   6.
 NSaved= 6 IEnMin= 6 EnMin= -3632.31934946603     IErMin= 6 ErrMin= 6.28D-04
 ErrMax= 6.28D-04 EMaxC= 1.00D-01 BMatC= 5.49D-04 BMatP= 4.45D-03
 IDIUse=3 WtCom= 9.94D-01 WtEn= 6.28D-03
 Coeff-Com:  0.177D-01-0.219D-01 0.871D-01 0.113D+00 0.310D+00 0.494D+00
 Coeff-En:   0.000D+00 0.000D+00 0.000D+00 0.000D+00 0.972D-01 0.903D+00
 Coeff:      0.176D-01-0.217D-01 0.865D-01 0.112D+00 0.309D+00 0.497D+00
 Gap=     0.072 Goal=   None    Shift=    0.000
 RMSDP=2.39D-05 MaxDP=2.15D-03 DE=-3.92D-03 OVMax= 4.66D-03

 Cycle   7  Pass 0  IDiag  1:
 RMSU=  1.30D-05    CP:  9.12D-01  2.49D+00  8.27D-01  5.34D-01  5.93D-01
                    CP:  7.11D-01
 E= -3632.31992264888     Delta-E=       -0.000573182848 Rises=F Damp=F
 DIIS: error= 1.07D-04 at cycle   7 NSaved=   7.
 NSaved= 7 IEnMin= 7 EnMin= -3632.31992264888     IErMin= 7 ErrMin= 1.07D-04
 ErrMax= 1.07D-04 EMaxC= 1.00D-01 BMatC= 2.97D-05 BMatP= 5.49D-04
 IDIUse=3 WtCom= 9.99D-01 WtEn= 1.07D-03
 Coeff-Com:  0.582D-02-0.820D-02 0.226D-01 0.333D-01 0.111D+00 0.259D+00
 Coeff-Com:  0.577D+00
 Coeff-En:   0.000D+00 0.000D+00 0.000D+00 0.000D+00 0.000D+00 0.000D+00
 Coeff-En:   0.100D+01
 Coeff:      0.581D-02-0.819D-02 0.226D-01 0.333D-01 0.111D+00 0.258D+00
 Coeff:      0.577D+00
 Gap=     0.072 Goal=   None    Shift=    0.000
 RMSDP=1.11D-05 MaxDP=4.89D-04 DE=-5.73D-04 OVMax= 1.67D-03

 Cycle   8  Pass 0  IDiag  1:
 RMSU=  7.47D-06    CP:  9.12D-01  2.48D+00  8.27D-01  5.37D-01  6.06D-01
                    CP:  7.68D-01  1.09D+00
 E= -3632.31996321334     Delta-E=       -0.000040564461 Rises=F Damp=F
 DIIS: error= 5.92D-05 at cycle   8 NSaved=   8.
 NSaved= 8 IEnMin= 8 EnMin= -3632.31996321334     IErMin= 8 ErrMin= 5.92D-05
 ErrMax= 5.92D-05 EMaxC= 1.00D-01 BMatC= 3.39D-06 BMatP= 2.97D-05
 IDIUse=1 WtCom= 1.00D+00 WtEn= 0.00D+00
 Coeff-Com:  0.211D-02-0.313D-02 0.745D-02 0.117D-01 0.433D-01 0.118D+00
 Coeff-Com:  0.329D+00 0.492D+00
 Coeff:      0.211D-02-0.313D-02 0.745D-02 0.117D-01 0.433D-01 0.118D+00
 Coeff:      0.329D+00 0.492D+00
 Gap=     0.072 Goal=   None    Shift=    0.000
 RMSDP=1.07D-05 MaxDP=4.88D-04 DE=-4.06D-05 OVMax= 1.66D-03

 Cycle   9  Pass 0  IDiag  1:
 RMSU=  4.44D-06    CP:  9.12D-01  2.48D+00  8.27D-01  5.37D-01  6.11D-01
                    CP:  8.15D-01  1.42D+00  1.55D+00
 E= -3632.31996285229     Delta-E=        0.000000361044 Rises=F Damp=F
 DIIS: error= 5.26D-05 at cycle   9 NSaved=   9.
 NSaved= 9 IEnMin= 8 EnMin= -3632.31996321334     IErMin= 9 ErrMin= 5.26D-05
 ErrMax= 5.26D-05 EMaxC= 1.00D-01 BMatC= 2.05D-06 BMatP= 3.39D-06
 IDIUse=1 WtCom= 1.00D+00 WtEn= 0.00D+00
 Coeff-Com:  0.662D-03-0.105D-02 0.205D-02 0.351D-02 0.154D-01 0.508D-01
 Coeff-Com:  0.166D+00 0.403D+00 0.360D+00
 Coeff:      0.662D-03-0.105D-02 0.205D-02 0.351D-02 0.154D-01 0.508D-01
 Coeff:      0.166D+00 0.403D+00 0.360D+00
 Gap=     0.072 Goal=   None    Shift=    0.000
 RMSDP=8.80D-06 MaxDP=4.05D-04 DE= 3.61D-07 OVMax= 9.31D-04

 Initial convergence to 1.0D-05 achieved.  Increase integral accuracy.
 Cycle  10  Pass 1  IDiag  1:
 E= -3632.31890014051     Delta-E=        0.001062711788 Rises=F Damp=F
 DIIS: error= 6.71D-04 at cycle   1 NSaved=   1.
 NSaved= 1 IEnMin= 1 EnMin= -3632.31890014051     IErMin= 1 ErrMin= 6.71D-04
 ErrMax= 6.71D-04 EMaxC= 1.00D-01 BMatC= 9.80D-05 BMatP= 9.80D-05
 IDIUse=3 WtCom= 9.93D-01 WtEn= 6.71D-03
 Coeff-Com:  0.100D+01
 Coeff-En:   0.100D+01
 Coeff:      0.100D+01
 Gap=     0.072 Goal=   None    Shift=    0.000
 RMSDP=8.80D-06 MaxDP=4.05D-04 DE= 1.06D-03 OVMax= 7.33D-04

 Cycle  11  Pass 1  IDiag  1:
 RMSU=  2.23D-04    CP:  1.00D+00
 E= -3632.31896538620     Delta-E=       -0.000065245695 Rises=F Damp=F
 DIIS: error= 1.96D-05 at cycle   2 NSaved=   2.
 NSaved= 2 IEnMin= 2 EnMin= -3632.31896538620     IErMin= 2 ErrMin= 1.96D-05
 ErrMax= 1.96D-05 EMaxC= 1.00D-01 BMatC= 5.25D-07 BMatP= 9.80D-05
 IDIUse=1 WtCom= 1.00D+00 WtEn= 0.00D+00
 Coeff-Com:  0.179D-03 0.100D+01
 Coeff:      0.179D-03 0.100D+01
 Gap=     0.072 Goal=   None    Shift=    0.000
 RMSDP=4.27D-06 MaxDP=3.40D-04 DE=-6.52D-05 OVMax= 1.68D-03

 Cycle  12  Pass 1  IDiag  1:
 RMSU=  2.01D-06    CP:  1.00D+00  1.01D+00
 E= -3632.31896053968     Delta-E=        0.000004846523 Rises=F Damp=F
 DIIS: error= 6.25D-05 at cycle   3 NSaved=   3.
 NSaved= 3 IEnMin= 2 EnMin= -3632.31896538620     IErMin= 2 ErrMin= 1.96D-05
 ErrMax= 6.25D-05 EMaxC= 1.00D-01 BMatC= 4.34D-06 BMatP= 5.25D-07
 IDIUse=1 WtCom= 1.00D+00 WtEn= 0.00D+00
 Coeff-Com: -0.494D-02 0.750D+00 0.255D+00
 Coeff:     -0.494D-02 0.750D+00 0.255D+00
 Gap=     0.072 Goal=   None    Shift=    0.000
 RMSDP=2.12D-06 MaxDP=1.69D-04 DE= 4.85D-06 OVMax= 1.35D-03

 Cycle  13  Pass 1  IDiag  1:
 RMSU=  5.02D-07    CP:  1.00D+00  1.01D+00  2.99D-01
 E= -3632.31896599109     Delta-E=       -0.000005451413 Rises=F Damp=F
 DIIS: error= 4.20D-06 at cycle   4 NSaved=   4.
 NSaved= 4 IEnMin= 4 EnMin= -3632.31896599109     IErMin= 4 ErrMin= 4.20D-06
 ErrMax= 4.20D-06 EMaxC= 1.00D-01 BMatC= 4.66D-08 BMatP= 5.25D-07
 IDIUse=1 WtCom= 1.00D+00 WtEn= 0.00D+00
 Coeff-Com: -0.303D-02 0.419D+00 0.156D+00 0.427D+00
 Coeff:     -0.303D-02 0.419D+00 0.156D+00 0.427D+00
 Gap=     0.072 Goal=   None    Shift=    0.000
 RMSDP=2.40D-07 MaxDP=1.94D-05 DE=-5.45D-06 OVMax= 9.96D-05

 Cycle  14  Pass 1  IDiag  1:
 RMSU=  1.45D-07    CP:  1.00D+00  1.01D+00  3.23D-01  8.57D-01
 E= -3632.31896604030     Delta-E=       -0.000000049211 Rises=F Damp=F
 DIIS: error= 2.27D-06 at cycle   5 NSaved=   5.
 NSaved= 5 IEnMin= 5 EnMin= -3632.31896604030     IErMin= 5 ErrMin= 2.27D-06
 ErrMax= 2.27D-06 EMaxC= 1.00D-01 BMatC= 3.56D-09 BMatP= 4.66D-08
 IDIUse=1 WtCom= 1.00D+00 WtEn= 0.00D+00
 Coeff-Com: -0.135D-02 0.182D+00 0.699D-01 0.256D+00 0.493D+00
 Coeff:     -0.135D-02 0.182D+00 0.699D-01 0.256D+00 0.493D+00
 Gap=     0.072 Goal=   None    Shift=    0.000
 RMSDP=7.24D-08 MaxDP=3.97D-06 DE=-4.92D-08 OVMax= 2.10D-05

 Cycle  15  Pass 1  IDiag  1:
 RMSU=  4.00D-08    CP:  1.00D+00  1.01D+00  3.23D-01  8.81D-01  7.99D-01
 E= -3632.31896604387     Delta-E=       -0.000000003563 Rises=F Damp=F
 DIIS: error= 8.64D-07 at cycle   6 NSaved=   6.
 NSaved= 6 IEnMin= 6 EnMin= -3632.31896604387     IErMin= 6 ErrMin= 8.64D-07
 ErrMax= 8.64D-07 EMaxC= 1.00D-01 BMatC= 6.85D-10 BMatP= 3.56D-09
 IDIUse=1 WtCom= 1.00D+00 WtEn= 0.00D+00
 Coeff-Com: -0.329D-03 0.421D-01 0.171D-01 0.919D-01 0.328D+00 0.522D+00
 Coeff:     -0.329D-03 0.421D-01 0.171D-01 0.919D-01 0.328D+00 0.522D+00
 Gap=     0.072 Goal=   None    Shift=    0.000
 RMSDP=3.04D-08 MaxDP=2.44D-06 DE=-3.56D-09 OVMax= 6.27D-06

 Cycle  16  Pass 1  IDiag  1:
 RMSU=  1.57D-08    CP:  1.00D+00  1.01D+00  3.23D-01  8.84D-01  8.46D-01
                    CP:  6.87D-01
 E= -3632.31896604476     Delta-E=       -0.000000000899 Rises=F Damp=F
 DIIS: error= 3.68D-07 at cycle   7 NSaved=   7.
 NSaved= 7 IEnMin= 7 EnMin= -3632.31896604476     IErMin= 7 ErrMin= 3.68D-07
 ErrMax= 3.68D-07 EMaxC= 1.00D-01 BMatC= 1.92D-10 BMatP= 6.85D-10
 IDIUse=1 WtCom= 1.00D+00 WtEn= 0.00D+00
 Coeff-Com: -0.444D-04 0.403D-02 0.225D-02 0.284D-01 0.165D+00 0.386D+00
 Coeff-Com:  0.415D+00
 Coeff:     -0.444D-04 0.403D-02 0.225D-02 0.284D-01 0.165D+00 0.386D+00
 Coeff:      0.415D+00
 Gap=     0.072 Goal=   None    Shift=    0.000
 RMSDP=1.12D-08 MaxDP=1.34D-06 DE=-8.99D-10 OVMax= 2.96D-06

 Cycle  17  Pass 1  IDiag  1:
 RMSU=  5.00D-09    CP:  1.00D+00  1.01D+00  3.23D-01  8.85D-01  8.47D-01
                    CP:  7.22D-01  6.21D-01
 E= -3632.31896604454     Delta-E=        0.000000000222 Rises=F Damp=F
 DIIS: error= 7.63D-08 at cycle   8 NSaved=   8.
 NSaved= 8 IEnMin= 7 EnMin= -3632.31896604476     IErMin= 8 ErrMin= 7.63D-08
 ErrMax= 7.63D-08 EMaxC= 1.00D-01 BMatC= 1.21D-11 BMatP= 1.92D-10
 IDIUse=1 WtCom= 1.00D+00 WtEn= 0.00D+00
 Coeff-Com:  0.109D-04-0.244D-02-0.530D-03 0.748D-02 0.661D-01 0.187D+00
 Coeff-Com:  0.256D+00 0.486D+00
 Coeff:      0.109D-04-0.244D-02-0.530D-03 0.748D-02 0.661D-01 0.187D+00
 Coeff:      0.256D+00 0.486D+00
 Gap=     0.072 Goal=   None    Shift=    0.000
 RMSDP=4.08D-09 MaxDP=3.34D-07 DE= 2.22D-10 OVMax= 8.18D-07

 SCF Done:  E(RB3LYP) =  -3632.31896604     A.U. after   17 cycles
             Convg  =    0.4084D-08             -V/T =  2.0041
 KE= 3.617656317161D+03 PE=-2.789892591641D+04 EE= 1.094650317893D+04
 Leave Link  502 at Fri Feb  1 22:10:15 2013, MaxMem= 1073741824 cpu:    9247.8
 (Enter /apps/gaussian/g09_c01/g09/l801.exe)
 ExpMin= 7.78D-02 ExpMax= 1.61D+04 ExpMxC= 2.43D+03 IAcc=3 IRadAn=         5 AccDes= 0.00D+00
 HarFok:  IExCor=  205 AccDes= 0.00D+00 IRadAn=         5 IDoV=-2
 ScaDFX=  1.000000  1.000000  1.000000  1.000000
 Largest valence mixing into a core orbital is  6.43D-05
 Largest core mixing into a valence orbital is  1.54D-05
 Range of M.O.s used for correlation:    85  1336
 NBasis=  1336 NAE=   250 NBE=   250 NFC=    84 NFV=     0
 NROrb=   1252 NOA=   166 NOB=   166 NVA=  1086 NVB=  1086

 **** Warning!!: The largest alpha MO coefficient is  0.10410944D+02


 **** Warning!!: The smallest alpha delta epsilon is  0.71868590D-01

 Leave Link  801 at Fri Feb  1 22:10:17 2013, MaxMem= 1073741824 cpu:       9.7
 (Enter /apps/gaussian/g09_c01/g09/l914.exe)
 RHF ground state
 MDV=  1073741824 DFT=T DoStab=F Mixed=T DoRPA=T DoScal=F NonHer=T
 Would need an additional************ words for in-memory AO integral storage.
 Making orbital integer symmetry assigments:
   100 initial guesses have been made.
 Convergence on wavefunction:    0.001000000000000
 Davidson Disk Diagonalization:  ConvIn= 1.00D-03 SkipCon=T Conv= 1.00D-03.
 Max sub-space:   400 roots to seek:   100 dimension of matrix: 360552
 Iteration     1 Dimension   100 NMult   100
 CISAX:  IP=  8 NPass=   4 NMax=    25.
 CISAX will form    25 AO SS matrices at one time.
 NMat=    25 NSing=    25.
 FoFCou: FMM=T IPFlag=           0 FMFlag=      100000 FMFlg1=        2001
         NFxFlg=           0 DoJE=F BraDBF=F KetDBF=F FulRan=T
         Omega=  0.000000  0.000000  1.000000  0.000000  0.000000 ICntrl=       0 IOpCl=  0
         NMat0=   25 NMatS0=   25 NMatT0=    0 NMatD0=   25 NMtDS0=    0 NMtDT0=    0
         I1Cent=           0 NGrid=           0.
 Symmetry not used in FoFCou.
 FMM levels:  10  Number of levels for PrismC:   9
 NMat=    25 NSing=    25.
 NMat=    25 NSing=    25.
 NMat=    25 NSing=    25.
 CISAX:  IP=  8 NPass=   4 NMax=    25.
 CISAX will form    25 AO SS matrices at one time.
 NMat=    25 NSing=    25.
 NMat=    25 NSing=    25.
 NMat=    25 NSing=    25.
 NMat=    25 NSing=    25.
 New state      2 was old state      4
 New state      3 was old state     16
 New state      4 was old state      3
 New state      5 was old state      7
 New state      6 was old state      8
 New state      7 was old state      5
 New state      8 was old state      6
 New state      9 was old state     13
 New state     10 was old state     14
 New state     11 was old state     20
 New state     12 was old state     19
 New state     13 was old state     12
 New state     14 was old state     11
 No map to state     16
 New state     17 was old state     10
 New state     18 was old state      9
 New state     19 was old state     17
 New state     20 was old state     18
 No map to state     21
 No map to state     22
 New state     23 was old state     21
 New state     24 was old state     22
 No map to state     25
 Excitation Energies [eV] at current iteration:
 Root      1 :     1.715167286837152
 Root      2 :     1.715330013031150
 Root      3 :     2.217941029868750
 Root      4 :     2.234185959792653
 Root      5 :     2.802068274150332
 Root      6 :     2.802195386298805
 Root      7 :     3.028060613365632
 Root      8 :     3.028328270276667
 Root      9 :     3.240126108990212
 Root     10 :     3.240849017205106
 Root     11 :     3.263792885477659
 Root     12 :     3.264478227358738
 Root     13 :     3.416417694522119
 Root     14 :     3.416423218018928
 Root     15 :     3.493162135722641
 Root     16 :     3.493328107170361
 Root     17 :     3.545097652715544
 Root     18 :     3.546148963927871
 Root     19 :     3.594034337683873
 Root     20 :     3.594153338720568
 Root     21 :     3.769186397516498
 Root     22 :     3.769217406951725
 Root     23 :     3.834094275489979
 Root     24 :     3.834232985962670
 Root     25 :     3.835676763916409
 Iteration     2 Dimension   150 NMult   150
 CISAX:  IP=  8 NPass=   2 NMax=    25.
 CISAX will form    25 AO SS matrices at one time.
 NMat=    25 NSing=    25.
 NMat=    25 NSing=    25.
 CISAX:  IP=  8 NPass=   2 NMax=    25.
 CISAX will form    25 AO SS matrices at one time.
 NMat=    25 NSing=    25.
 NMat=    25 NSing=    25.
 Root      1 not converged, maximum delta is    0.092366717199657
 Root      2 not converged, maximum delta is    0.097736235356574
 Root      3 not converged, maximum delta is    0.072325121072405
 Root      4 not converged, maximum delta is    0.053147161421585
 Root      5 not converged, maximum delta is    0.095282877768043
 Root      6 not converged, maximum delta is    0.098453372705312
 Root      7 not converged, maximum delta is    0.003246291464751
 Root      8 not converged, maximum delta is    0.003169327158384
 Root      9 not converged, maximum delta is    0.067788721088931
 Root     10 not converged, maximum delta is    0.115885969079299
 Root     11 not converged, maximum delta is    0.153637474276301
 Root     12 not converged, maximum delta is    0.069335487058459
 New state     13 was old state     17
 Root     13 not converged, maximum delta is    0.065737748017571
 New state     14 was old state     18
 Root     14 not converged, maximum delta is    0.068305330727817
 New state     15 was old state     13
 Root     15 not converged, maximum delta is    0.127840138624102
 New state     16 was old state     14
 Root     16 not converged, maximum delta is    0.122981191549156
 New state     17 was old state     15
 Root     17 not converged, maximum delta is    0.003746051732165
 New state     18 was old state     16
 Root     18 not converged, maximum delta is    0.003735279135217
 Root     19 not converged, maximum delta is    0.003225853707386
 Root     20 not converged, maximum delta is    0.003243003381489
 Root     21 not converged, maximum delta is    0.191127041355941
 Root     22 not converged, maximum delta is    0.189807987709876
 No map to state     23
 New state     24 was old state     25
 Root     24 not converged, maximum delta is    0.034762482741525
 New state     25 was old state     23
 Root     25 not converged, maximum delta is    0.394252558062897
 Excitation Energies [eV] at current iteration:
 Root      1 :     1.715079330818696   Change is   -0.000087956018456
 Root      2 :     1.715261943334952   Change is   -0.000068069696198
 Root      3 :     1.753193294117266   Change is   -0.464747735751484
 Root      4 :     1.761976898155238   Change is   -0.472209061637415
 Root      5 :     2.736998841443969   Change is   -0.065069432706364
 Root      6 :     2.737118895424417   Change is   -0.065076490874387
 Root      7 :     3.027811579028679   Change is   -0.000249034336953
 Root      8 :     3.028079226963973   Change is   -0.000249043312694
 Root      9 :     3.195395156997646   Change is   -0.044730951992566
 Root     10 :     3.196552093065426   Change is   -0.044296924139680
 Root     11 :     3.205292376770755   Change is   -0.058500508706904
 Root     12 :     3.205708499816760   Change is   -0.058769727541979
 Root     13 :     3.219680893309917   Change is   -0.325416759405627
 Root     14 :     3.220001422602836   Change is   -0.326147541325035
 Root     15 :     3.416138869349309   Change is   -0.000278825172810
 Root     16 :     3.416144195383966   Change is   -0.000279022634961
 Root     17 :     3.492895079365538   Change is   -0.000267056357103
 Root     18 :     3.493060941883822   Change is   -0.000267165286539
 Root     19 :     3.593802963109939   Change is   -0.000231374573934
 Root     20 :     3.593921996579709   Change is   -0.000231342140859
 Root     21 :     3.730796456996361   Change is   -0.038389940520137
 Root     22 :     3.733308127906438   Change is   -0.035909279045287
 Root     23 :     3.753235070648133
 Root     24 :     3.792567369730719   Change is   -0.043109394185691
 Root     25 :     3.827993664240695   Change is   -0.006100611249284
 Iteration     3 Dimension   200 NMult   200
 CISAX:  IP=  8 NPass=   2 NMax=    25.
 CISAX will form    25 AO SS matrices at one time.
 NMat=    25 NSing=    25.
 NMat=    25 NSing=    25.
 CISAX:  IP=  8 NPass=   2 NMax=    25.
 CISAX will form    25 AO SS matrices at one time.
 NMat=    25 NSing=    25.
 NMat=    25 NSing=    25.
 Root      1 not converged, maximum delta is    0.042698477998766
 Root      2 not converged, maximum delta is    0.044215244514031
 Root      3 not converged, maximum delta is    0.012682420976377
 Root      4 not converged, maximum delta is    0.004945140051643
 Root      5 not converged, maximum delta is    0.014275475886853
 Root      6 not converged, maximum delta is    0.014863472320166
 Root      7 has converged.
 Root      8 has converged.
 New state      9 was old state     10
 Root      9 not converged, maximum delta is    0.022341079656570
 New state     10 was old state      9
 Root     10 not converged, maximum delta is    0.017308788806171
 Root     11 not converged, maximum delta is    0.036964603283862
 Root     12 not converged, maximum delta is    0.025875515411135
 Root     13 not converged, maximum delta is    0.064730295350184
 Root     14 not converged, maximum delta is    0.062152115081759
 Root     15 not converged, maximum delta is    0.003548686624022
 Root     16 not converged, maximum delta is    0.003676599478615
 Root     17 not converged, maximum delta is    0.001518972436886
 Root     18 not converged, maximum delta is    0.001507570975624
 Root     19 has converged.
 Root     20 has converged.
 New state     21 was old state     23
 Root     21 not converged, maximum delta is    0.245357696286870
 New state     22 was old state     25
 Root     22 not converged, maximum delta is    0.348152685160760
 New state     23 was old state     21
 Root     23 not converged, maximum delta is    0.217612101284730
 New state     24 was old state     22
 Root     24 not converged, maximum delta is    0.134768466494958
 New state     25 was old state     24
 Root     25 not converged, maximum delta is    0.027104376405296
 Excitation Energies [eV] at current iteration:
 Root      1 :     1.715044730920316   Change is   -0.000034599898380
 Root      2 :     1.715251198869312   Change is   -0.000010744465640
 Root      3 :     1.740308167601344   Change is   -0.012885126515922
 Root      4 :     1.748922605580056   Change is   -0.013054292575182
 Root      5 :     2.731740211415805   Change is   -0.005258630028164
 Root      6 :     2.731873013244491   Change is   -0.005245882179927
 Root      7 :     3.027811301852589   Change is   -0.000000277176090
 Root      8 :     3.028078951371763   Change is   -0.000000275592210
 Root      9 :     3.187372616101468   Change is   -0.009179476963958
 Root     10 :     3.187750202278780   Change is   -0.007644954718867
 Root     11 :     3.199140639948493   Change is   -0.006151736822262
 Root     12 :     3.199947601213293   Change is   -0.005760898603467
 Root     13 :     3.202524674059293   Change is   -0.017156219250625
 Root     14 :     3.202740789149404   Change is   -0.017260633453432
 Root     15 :     3.416138292392555   Change is   -0.000000576956754
 Root     16 :     3.416143598099186   Change is   -0.000000597284780
 Root     17 :     3.492893164247005   Change is   -0.000001915118533
 Root     18 :     3.493059018875101   Change is   -0.000001923008721
 Root     19 :     3.593802404330402   Change is   -0.000000558779537
 Root     20 :     3.593921432956523   Change is   -0.000000563623186
 Root     21 :     3.680914874116904   Change is   -0.072320196531229
 Root     22 :     3.701815534705506   Change is   -0.126178129535189
 Root     23 :     3.733015013805227   Change is    0.002218556808866
 Root     24 :     3.734172736020442   Change is    0.000864608114003
 Root     25 :     3.790221325640101   Change is   -0.002346044090617
 Iteration     4 Dimension   242 NMult   242
 CISAX:  IP=  8 NPass=   2 NMax=    21.
 CISAX will form    21 AO SS matrices at one time.
 NMat=    21 NSing=    21.
 NMat=    21 NSing=    21.
 CISAX:  IP=  8 NPass=   2 NMax=    21.
 CISAX will form    21 AO SS matrices at one time.
 NMat=    21 NSing=    21.
 NMat=    21 NSing=    21.
 Root      1 not converged, maximum delta is    0.006105005028258
 Root      2 not converged, maximum delta is    0.006271522703439
 Root      3 not converged, maximum delta is    0.001957880218222
 Root      4 not converged, maximum delta is    0.001872086412666
 Root      5 not converged, maximum delta is    0.008695791546442
 Root      6 not converged, maximum delta is    0.009024452599862
 Root      7 has converged.
 Root      8 has converged.
 Root      9 not converged, maximum delta is    0.003413848406848
 Root     10 not converged, maximum delta is    0.003240301486799
 Root     11 not converged, maximum delta is    0.017578543284502
 Root     12 not converged, maximum delta is    0.002457555095611
 Root     13 not converged, maximum delta is    0.011955819927510
 Root     14 not converged, maximum delta is    0.004512123911371
 Root     15 has converged.
 Root     16 has converged.
 Root     17 has converged.
 Root     18 has converged.
 Root     19 has converged.
 Root     20 has converged.
 Root     21 not converged, maximum delta is    0.007824197514337
 Root     22 not converged, maximum delta is    0.062719827353665
 New state     23 was old state     24
 Root     23 not converged, maximum delta is    0.290574603263699
 New state     24 was old state     23
 Root     24 not converged, maximum delta is    0.294805054917103
 Root     25 not converged, maximum delta is    0.002130231099646
 Excitation Energies [eV] at current iteration:
 Root      1 :     1.715038907603995   Change is   -0.000005823316321
 Root      2 :     1.715249785412466   Change is   -0.000001413456846
 Root      3 :     1.739037504395175   Change is   -0.001270663206169
 Root      4 :     1.747586188783084   Change is   -0.001336416796971
 Root      5 :     2.731381796937761   Change is   -0.000358414478044
 Root      6 :     2.731521762454189   Change is   -0.000351250790302
 Root      7 :     3.027811292093304   Change is   -0.000000009759286
 Root      8 :     3.028078941526635   Change is   -0.000000009845128
 Root      9 :     3.186331802488423   Change is   -0.001040813613045
 Root     10 :     3.186912824171662   Change is   -0.000837378107117
 Root     11 :     3.198433870822674   Change is   -0.000706769125818
 Root     12 :     3.199310140311262   Change is   -0.000637460902031
 Root     13 :     3.201113250241426   Change is   -0.001411423817867
 Root     14 :     3.201330663398075   Change is   -0.001410125751329
 Root     15 :     3.416138196749473   Change is   -0.000000095643082
 Root     16 :     3.416143501106041   Change is   -0.000000096993145
 Root     17 :     3.492892941967294   Change is   -0.000000222279711
 Root     18 :     3.493058793037797   Change is   -0.000000225837304
 Root     19 :     3.593802380448890   Change is   -0.000000023881512
 Root     20 :     3.593921412255427   Change is   -0.000000020701097
 Root     21 :     3.674208846624333   Change is   -0.006706027492571
 Root     22 :     3.678415609888545   Change is   -0.023399924816962
 Root     23 :     3.732736098029367   Change is   -0.001436637991074
 Root     24 :     3.732798666914183   Change is   -0.000216346891044
 Root     25 :     3.789990149602418   Change is   -0.000231176037683
 Iteration     5 Dimension   276 NMult   276
 CISAX:  IP=  8 NPass=   2 NMax=    17.
 CISAX will form    17 AO SS matrices at one time.
 NMat=    17 NSing=    17.
 NMat=    17 NSing=    17.
 CISAX:  IP=  8 NPass=   2 NMax=    17.
 CISAX will form    17 AO SS matrices at one time.
 NMat=    17 NSing=    17.
 NMat=    17 NSing=    17.
 Root      1 has converged.
 Root      2 has converged.
 Root      3 has converged.
 Root      4 has converged.
 Root      5 not converged, maximum delta is    0.001463546942912
 Root      6 not converged, maximum delta is    0.001518283603864
 Root      7 has converged.
 Root      8 has converged.
 Root      9 has converged.
 Root     10 has converged.
 Root     11 has converged.
 Root     12 has converged.
 Root     13 has converged.
 Root     14 has converged.
 Root     15 has converged.
 Root     16 has converged.
 Root     17 has converged.
 Root     18 has converged.
 Root     19 has converged.
 Root     20 has converged.
 Root     21 not converged, maximum delta is    0.003156619037382
 Root     22 not converged, maximum delta is    0.005271980629004
 Root     23 not converged, maximum delta is    0.154667935365437
 Root     24 not converged, maximum delta is    0.157582423884410
 Root     25 not converged, maximum delta is    0.002220156815778
 Excitation Energies [eV] at current iteration:
 Root      1 :     1.715038674958429   Change is   -0.000000232645566
 Root      2 :     1.715249722196796   Change is   -0.000000063215670
 Root      3 :     1.738989544467882   Change is   -0.000047959927293
 Root      4 :     1.747532850844501   Change is   -0.000053337938583
 Root      5 :     2.731371405279031   Change is   -0.000010391658729
 Root      6 :     2.731512857521380   Change is   -0.000008904932809
 Root      7 :     3.027811289951526   Change is   -0.000000002141777
 Root      8 :     3.028078938844799   Change is   -0.000000002681836
 Root      9 :     3.186216819473590   Change is   -0.000114983014833
 Root     10 :     3.186829586633113   Change is   -0.000083237538550
 Root     11 :     3.198369197293640   Change is   -0.000064673529035
 Root     12 :     3.199248461656120   Change is   -0.000061678655142
 Root     13 :     3.201062461965178   Change is   -0.000050788276248
 Root     14 :     3.201280534544341   Change is   -0.000050128853734
 Root     15 :     3.416138185936124   Change is   -0.000000010813349
 Root     16 :     3.416143488878305   Change is   -0.000000012227736
 Root     17 :     3.492892917402970   Change is   -0.000000024564324
 Root     18 :     3.493058770972472   Change is   -0.000000022065325
 Root     19 :     3.593802372496710   Change is   -0.000000007952181
 Root     20 :     3.593921403800923   Change is   -0.000000008454504
 Root     21 :     3.673440246779399   Change is   -0.000768599844935
 Root     22 :     3.675451212458733   Change is   -0.002964397429812
 Root     23 :     3.732639103258354   Change is   -0.000096994771013
 Root     24 :     3.732754917467161   Change is   -0.000043749447023
 Root     25 :     3.789957440956357   Change is   -0.000032708646061
 Iteration     6 Dimension   290 NMult   290
 CISAX:  IP=  8 NPass=   1 NMax=    14.
 CISAX will form    14 AO SS matrices at one time.
 NMat=    14 NSing=    14.
 CISAX:  IP=  8 NPass=   1 NMax=    14.
 CISAX will form    14 AO SS matrices at one time.
 NMat=    14 NSing=    14.
 Root      1 has converged.
 Root      2 has converged.
 Root      3 has converged.
 Root      4 has converged.
 Root      5 has converged.
 Root      6 has converged.
 Root      7 has converged.
 Root      8 has converged.
 Root      9 has converged.
 Root     10 has converged.
 Root     11 has converged.
 Root     12 has converged.
 Root     13 has converged.
 Root     14 has converged.
 Root     15 has converged.
 Root     16 has converged.
 Root     17 has converged.
 Root     18 has converged.
 Root     19 has converged.
 Root     20 has converged.
 Root     21 not converged, maximum delta is    0.001535129238182
 Root     22 not converged, maximum delta is    0.001550236194357
 Root     23 not converged, maximum delta is    0.007222360351713
 Root     24 not converged, maximum delta is    0.007311396431822
 Root     25 not converged, maximum delta is    0.003124984565145
 Excitation Energies [eV] at current iteration:
 Root      1 :     1.715038673646968   Change is   -0.000000001311461
 Root      2 :     1.715249721200861   Change is   -0.000000000995934
 Root      3 :     1.738989425172054   Change is   -0.000000119295829
 Root      4 :     1.747532722788423   Change is   -0.000000128056079
 Root      5 :     2.731370321443868   Change is   -0.000001083835164
 Root      6 :     2.731511972630372   Change is   -0.000000884891007
 Root      7 :     3.027811289305397   Change is   -0.000000000646129
 Root      8 :     3.028078938363969   Change is   -0.000000000480829
 Root      9 :     3.186213266933412   Change is   -0.000003552540177
 Root     10 :     3.186826712478090   Change is   -0.000002874155023
 Root     11 :     3.198368501982441   Change is   -0.000000695311198
 Root     12 :     3.199248282500669   Change is   -0.000000179155452
 Root     13 :     3.201060112900123   Change is   -0.000002349065055
 Root     14 :     3.201278104182810   Change is   -0.000002430361531
 Root     15 :     3.416138183878736   Change is   -0.000000002057388
 Root     16 :     3.416143486469227   Change is   -0.000000002409079
 Root     17 :     3.492892909404905   Change is   -0.000000007998065
 Root     18 :     3.493058763005328   Change is   -0.000000007967144
 Root     19 :     3.593802370133950   Change is   -0.000000002362760
 Root     20 :     3.593921401589006   Change is   -0.000000002211917
 Root     21 :     3.673381917156294   Change is   -0.000058329623104
 Root     22 :     3.675190239377961   Change is   -0.000260973080772
 Root     23 :     3.732630207252464   Change is   -0.000008896005891
 Root     24 :     3.732751911695035   Change is   -0.000003005772125
 Root     25 :     3.789952208405989   Change is   -0.000005232550368
 Iteration     7 Dimension   300 NMult   300
 CISAX:  IP=  1 NPass=   1 NMax=    10.
 CISAX will form    10 AO SS matrices at one time.
 NMat=    10 NSing=    10.
 CISAX:  IP=  1 NPass=   1 NMax=    10.
 CISAX will form    10 AO SS matrices at one time.
 NMat=    10 NSing=    10.
 Root      1 has converged.
 Root      2 has converged.
 Root      3 has converged.
 Root      4 has converged.
 Root      5 has converged.
 Root      6 has converged.
 Root      7 has converged.
 Root      8 has converged.
 Root      9 has converged.
 Root     10 has converged.
 Root     11 has converged.
 Root     12 has converged.
 Root     13 has converged.
 Root     14 has converged.
 Root     15 has converged.
 Root     16 has converged.
 Root     17 has converged.
 Root     18 has converged.
 Root     19 has converged.
 Root     20 has converged.
 Root     21 has converged.
 Root     22 has converged.
 Root     23 has converged.
 Root     24 has converged.
 Root     25 not converged, maximum delta is    0.002015840524645
 Excitation Energies [eV] at current iteration:
 Root      1 :     1.715038671463567   Change is   -0.000000002183401
 Root      2 :     1.715249720228129   Change is   -0.000000000972733
 Root      3 :     1.738989083296998   Change is   -0.000000341875056
 Root      4 :     1.747532682590562   Change is   -0.000000040197861
 Root      5 :     2.731370316359405   Change is   -0.000000005084462
 Root      6 :     2.731511970934217   Change is   -0.000000001696156
 Root      7 :     3.027811289161704   Change is   -0.000000000143693
 Root      8 :     3.028078938090133   Change is   -0.000000000273836
 Root      9 :     3.186212770513695   Change is   -0.000000496419717
 Root     10 :     3.186826426489183   Change is   -0.000000285988908
 Root     11 :     3.198368412028303   Change is   -0.000000089954138
 Root     12 :     3.199248213054118   Change is   -0.000000069446551
 Root     13 :     3.201060080443959   Change is   -0.000000032456164
 Root     14 :     3.201278055373718   Change is   -0.000000048809092
 Root     15 :     3.416138183366255   Change is   -0.000000000512482
 Root     16 :     3.416143485780243   Change is   -0.000000000688984
 Root     17 :     3.492892906467226   Change is   -0.000000002937678
 Root     18 :     3.493058759534347   Change is   -0.000000003470981
 Root     19 :     3.593802369629740   Change is   -0.000000000504210
 Root     20 :     3.593921400782985   Change is   -0.000000000806021
 Root     21 :     3.673376466606754   Change is   -0.000005450549540
 Root     22 :     3.675166101950503   Change is   -0.000024137427458
 Root     23 :     3.732629294843022   Change is   -0.000000912409441
 Root     24 :     3.732751557586207   Change is   -0.000000354108828
 Root     25 :     3.789951408926911   Change is   -0.000000799479078
 Iteration     8 Dimension   302 NMult   302
 CISAX:  IP=  1 NPass=   1 NMax=     2.
 CISAX will form     2 AO SS matrices at one time.
 NMat=     2 NSing=     2.
 CISAX:  IP=  1 NPass=   1 NMax=     2.
 CISAX will form     2 AO SS matrices at one time.
 NMat=     2 NSing=     2.
 Root      1 has converged.
 Root      2 has converged.
 Root      3 has converged.
 Root      4 has converged.
 Root      5 has converged.
 Root      6 has converged.
 Root      7 has converged.
 Root      8 has converged.
 Root      9 has converged.
 Root     10 has converged.
 Root     11 has converged.
 Root     12 has converged.
 Root     13 has converged.
 Root     14 has converged.
 Root     15 has converged.
 Root     16 has converged.
 Root     17 has converged.
 Root     18 has converged.
 Root     19 has converged.
 Root     20 has converged.
 Root     21 has converged.
 Root     22 has converged.
 Root     23 has converged.
 Root     24 has converged.
 Root     25 not converged, maximum delta is    0.001633884404105
 Excitation Energies [eV] at current iteration:
 Root      1 :     1.715038671423752   Change is   -0.000000000039815
 Root      2 :     1.715249720169651   Change is   -0.000000000058477
 Root      3 :     1.738989078696649   Change is   -0.000000004600348
 Root      4 :     1.747532664636803   Change is   -0.000000017953759
 Root      5 :     2.731370316202592   Change is   -0.000000000156814
 Root      6 :     2.731511970871593   Change is   -0.000000000062624
 Root      7 :     3.027811289155248   Change is   -0.000000000006456
 Root      8 :     3.028078937992678   Change is   -0.000000000097455
 Root      9 :     3.186212755817905   Change is   -0.000000014695790
 Root     10 :     3.186826421018106   Change is   -0.000000005471077
 Root     11 :     3.198368411228540   Change is   -0.000000000799763
 Root     12 :     3.199248202812392   Change is   -0.000000010241726
 Root     13 :     3.201060078678960   Change is   -0.000000001764999
 Root     14 :     3.201278055275502   Change is   -0.000000000098217
 Root     15 :     3.416138183230128   Change is   -0.000000000136126
 Root     16 :     3.416143485745686   Change is   -0.000000000034557
 Root     17 :     3.492892905862936   Change is   -0.000000000604290
 Root     18 :     3.493058759514087   Change is   -0.000000000020259
 Root     19 :     3.593802369569720   Change is   -0.000000000060020
 Root     20 :     3.593921400756187   Change is   -0.000000000026798
 Root     21 :     3.673376463581163   Change is   -0.000000003025591
 Root     22 :     3.675166084690886   Change is   -0.000000017259617
 Root     23 :     3.732629291068544   Change is   -0.000000003774478
 Root     24 :     3.732751556229193   Change is   -0.000000001357014
 Root     25 :     3.789951225699311   Change is   -0.000000183227600
 Convergence on energies, max DE= 1.83D-07.
 Convergence on expansion vectors.
 ***********************************************************************
 Excited states from <AA,BB:AA,BB> singles matrix:
 ***********************************************************************
 
 1PDM for each excited state written to RWF  633
 Ground to excited state transition densities written to RWF  633
 Ground to excited state transition electric dipole moments (Au):
       state          X           Y           Z        Dip. S.      Osc.
         1        -0.0643     -0.1330     -0.1325      0.0394      0.0017
         2        -0.0304     -0.0629     -0.0626      0.0088      0.0004
         3        -0.8677     -1.8510     -1.6346      6.8512      0.2919
         4        -0.0012     -0.0025     -0.0021      0.0000      0.0000
         5         0.0018     -0.0010     -0.0027      0.0000      0.0000
         6        -0.0046      0.0021      0.0079      0.0001      0.0000
         7        -0.0003     -0.0003      0.0013      0.0000      0.0000
         8         0.0003      0.0003     -0.0013      0.0000      0.0000
         9         0.0035      0.0172      0.0109      0.0004      0.0000
        10        -0.2498     -0.8389     -0.5825      1.1055      0.0863
        11         0.0225     -0.0129      0.0090      0.0008      0.0001
        12        -0.9003      0.4381     -0.4078      1.1688      0.0916
        13        -0.0183      0.0052     -0.0044      0.0004      0.0000
        14        -0.0382      0.0032     -0.0042      0.0015      0.0001
        15         0.0010      0.0016      0.0021      0.0000      0.0000
        16        -0.0012     -0.0020     -0.0025      0.0000      0.0000
        17        -0.0044     -0.0053     -0.0101      0.0001      0.0000
        18         0.0045      0.0053      0.0102      0.0002      0.0000
        19         0.0013     -0.0012      0.0001      0.0000      0.0000
        20        -0.0013      0.0012     -0.0001      0.0000      0.0000
        21         1.0188      1.5461      1.4604      5.5611      0.5005
        22         0.0050      0.0070      0.0068      0.0001      0.0000
        23         0.0074      0.0267      0.0271      0.0015      0.0001
        24         0.0484      0.1769      0.1797      0.0659      0.0060
        25         0.0100     -0.0158     -0.0213      0.0008      0.0001
 Ground to excited state transition velocity dipole moments (Au):
       state          X           Y           Z        Dip. S.      Osc.
         1         0.0047      0.0098      0.0092      0.0002      0.0021
[...]
 Alpha virt. eigenvalues --    1.48944   1.48947   1.49906   1.49912   1.51230
 Alpha virt. eigenvalues --    1.51237   1.52970   1.52981   1.54753   1.54754
 Alpha virt. eigenvalues --    1.55005   1.55007   1.55177   1.55183   1.55898
 Alpha virt. eigenvalues --    1.55902   1.57608   1.57609   1.58584   1.58594
 Alpha virt. eigenvalues --    1.59163   1.59166   1.59226   1.59231   1.59539
 Alpha virt. eigenvalues --    1.59549   1.59852   1.60020   1.60375   1.60391
 Alpha virt. eigenvalues --    1.61133   1.61170   1.61557   1.61711   1.61812
 Alpha virt. eigenvalues --    1.61814   1.63493   1.63504   1.66762   1.66767
 Alpha virt. eigenvalues --    1.67528   1.67542   1.70389   1.70424   1.71546
 Alpha virt. eigenvalues --    1.71557   1.73062   1.73068   1.73687   1.73696
 Alpha virt. eigenvalues --    1.74256   1.74374   1.74765   1.74776   1.74813
 Alpha virt. eigenvalues --    1.74820   1.77493   1.77509   1.79512   1.79543
 Alpha virt. eigenvalues --    1.80050   1.80051   1.80320   1.80322   1.81354
 Alpha virt. eigenvalues --    1.81364   1.81514   1.81520   1.83321   1.83322
 Alpha virt. eigenvalues --    1.85066   1.85067   1.86712   1.86720   1.86786
 Alpha virt. eigenvalues --    1.86790   1.88835   1.88838   1.88931   1.88945
 Alpha virt. eigenvalues --    1.91770   1.91781   1.91885   1.91894   1.93045
 Alpha virt. eigenvalues --    1.93053   1.93589   1.93591   1.94795   1.94801
 Alpha virt. eigenvalues --    1.94997   1.95013   1.95520   1.95521   1.96052
 Alpha virt. eigenvalues --    1.96067   1.96744   1.96746   1.97928   1.97946
 Alpha virt. eigenvalues --    1.98605   1.98612   1.98664   1.98670   1.99522
 Alpha virt. eigenvalues --    1.99522   1.99608   1.99609   1.99654   1.99654
 Alpha virt. eigenvalues --    1.99795   1.99795   2.00249   2.00250   2.02005
 Alpha virt. eigenvalues --    2.02005   2.02355   2.02355   2.03394   2.03398
 Alpha virt. eigenvalues --    2.03933   2.03941   2.04280   2.04285   2.05335
 Alpha virt. eigenvalues --    2.05347   2.05713   2.05720   2.05731   2.05748
 Alpha virt. eigenvalues --    2.08072   2.08073   2.09367   2.09373   2.10025
 Alpha virt. eigenvalues --    2.10033   2.10477   2.10478   2.10725   2.10726
 Alpha virt. eigenvalues --    2.10909   2.10911   2.10991   2.10991   2.11162
 Alpha virt. eigenvalues --    2.11162   2.11427   2.11429   2.11457   2.11458
 Alpha virt. eigenvalues --    2.11608   2.11609   2.13564   2.13576   2.14609
 Alpha virt. eigenvalues --    2.14619   2.16715   2.16716   2.17735   2.17738
 Alpha virt. eigenvalues --    2.17924   2.17925   2.18093   2.18195   2.18260
 Alpha virt. eigenvalues --    2.18368   2.19878   2.19892   2.21738   2.21739
 Alpha virt. eigenvalues --    2.22269   2.22278   2.22552   2.22585   2.22827
 Alpha virt. eigenvalues --    2.22845   2.23258   2.23265   2.23545   2.23595
 Alpha virt. eigenvalues --    2.24263   2.24265   2.24568   2.24611   2.24655
 Alpha virt. eigenvalues --    2.24656   2.24708   2.24710   2.26272   2.26276
 Alpha virt. eigenvalues --    2.26672   2.26685   2.27525   2.27537   2.27791
 Alpha virt. eigenvalues --    2.27816   2.29007   2.29012   2.29291   2.29297
 Alpha virt. eigenvalues --    2.29700   2.29725   2.29835   2.29859   2.30136
 Alpha virt. eigenvalues --    2.30235   2.30662   2.30665   2.31036   2.31040
 Alpha virt. eigenvalues --    2.31352   2.31356   2.31590   2.31592   2.32130
 Alpha virt. eigenvalues --    2.32131   2.32873   2.32875   2.33902   2.33905
 Alpha virt. eigenvalues --    2.35636   2.35645   2.37642   2.37662   2.37718
 Alpha virt. eigenvalues --    2.37723   2.38304   2.38312   2.41882   2.41884
 Alpha virt. eigenvalues --    2.42772   2.42794   2.44509   2.44510   2.44908
 Alpha virt. eigenvalues --    2.44910   2.45141   2.45148   2.46664   2.46678
 Alpha virt. eigenvalues --    2.47194   2.47222   2.47390   2.47416   2.47431
 Alpha virt. eigenvalues --    2.47466   2.47556   2.47797   2.47843   2.47877
 Alpha virt. eigenvalues --    2.49341   2.49343   2.50881   2.50890   2.51106
 Alpha virt. eigenvalues --    2.51108   2.51124   2.51132   2.51245   2.51272
 Alpha virt. eigenvalues --    2.51617   2.51651   2.52538   2.52543   2.52564
 Alpha virt. eigenvalues --    2.52643   2.52887   2.52903   2.53121   2.53160
 Alpha virt. eigenvalues --    2.53377   2.53590   2.53638   2.53643   2.53870
 Alpha virt. eigenvalues --    2.53879   2.54466   2.54539   2.54725   2.54726
 Alpha virt. eigenvalues --    2.57006   2.57062   2.58306   2.58320   2.58977
 Alpha virt. eigenvalues --    2.58979   2.59218   2.59222   2.60103   2.60143
 Alpha virt. eigenvalues --    2.60659   2.60660   2.62743   2.62745   2.63130
 Alpha virt. eigenvalues --    2.63142   2.64610   2.64611   2.65594   2.65595
 Alpha virt. eigenvalues --    2.67018   2.67041   2.67344   2.67344   2.67509
 Alpha virt. eigenvalues --    2.67513   2.67635   2.67637   2.68652   2.68652
 Alpha virt. eigenvalues --    2.69499   2.69536   2.74396   2.74410   2.75388
 Alpha virt. eigenvalues --    2.75390   2.75630   2.75635   2.75756   2.75761
 Alpha virt. eigenvalues --    2.75903   2.75905   2.76294   2.76303   2.76740
 Alpha virt. eigenvalues --    2.76779   2.77675   2.77689   2.79114   2.79116
 Alpha virt. eigenvalues --    2.80707   2.80708   2.80896   2.80897   2.81715
 Alpha virt. eigenvalues --    2.81718   2.81762   2.81765   2.82051   2.82064
 Alpha virt. eigenvalues --    2.82099   2.82101   2.82439   2.82446   2.82596
 Alpha virt. eigenvalues --    2.82603   2.84626   2.84627   2.85719   2.85720
 Alpha virt. eigenvalues --    2.87333   2.87335   2.90105   2.90114   2.90542
 Alpha virt. eigenvalues --    2.90552   2.90618   2.90624   2.91604   2.91607
 Alpha virt. eigenvalues --    2.91833   2.91835   2.92245   2.92266   3.01794
 Alpha virt. eigenvalues --    3.01794   3.02067   3.02069   3.03681   3.03683
 Alpha virt. eigenvalues --    3.05534   3.05536   3.05863   3.05864   3.05891
 Alpha virt. eigenvalues --    3.05933   3.06232   3.06272   3.07998   3.08034
 Alpha virt. eigenvalues --    3.08071   3.08095   3.08427   3.08457   3.08466
 Alpha virt. eigenvalues --    3.08508   3.08601   3.08658   3.08679   3.08949
 Alpha virt. eigenvalues --    3.08974   3.09190   3.09246   3.09333   3.09790
 Alpha virt. eigenvalues --    3.09934   3.12155   3.12156   3.13792   3.13812
 Alpha virt. eigenvalues --    3.14786   3.14853   3.18342   3.18368   3.21450
 Alpha virt. eigenvalues --    3.21451   3.22046   3.22055   3.25859   3.25861
 Alpha virt. eigenvalues --    3.28218   3.28218   3.29411   3.29411   3.29504
 Alpha virt. eigenvalues --    3.29506   3.33258   3.33261   3.33548   3.33550
 Alpha virt. eigenvalues --    3.40118   3.40122   3.45426   3.45441   3.50323
 Alpha virt. eigenvalues --    3.50325   3.54884   3.54893   3.60746   3.60759
 Alpha virt. eigenvalues --    3.61000   3.61005   3.61127   3.61301   3.61323
 Alpha virt. eigenvalues --    3.61330   3.61481   3.61528   3.61537   3.61629
 Alpha virt. eigenvalues --    3.61896   3.62365   3.63649   3.63664   3.65866
 Alpha virt. eigenvalues --    3.65871   3.65906   3.65917   3.71281   3.71281
 Alpha virt. eigenvalues --    3.71519   3.71531   3.71669   3.71690   3.71884
 Alpha virt. eigenvalues --    3.71886   3.71953   3.72007   3.72163   3.72169
 Alpha virt. eigenvalues --    3.72318   3.72323   3.72354   3.72376   3.72470
 Alpha virt. eigenvalues --    3.72587   3.72639   3.72677   3.72759   3.72795
 Alpha virt. eigenvalues --    3.72978   3.73062   3.73396   3.73400   3.73811
 Alpha virt. eigenvalues --    3.73964   3.83386   3.83394   3.85081   3.85088
 Alpha virt. eigenvalues --    3.86849   3.86858   3.86876   3.86884   3.94701
 Alpha virt. eigenvalues --    3.94705   3.96190   3.96193   4.07719   4.07725
 Alpha virt. eigenvalues --    4.10623   4.10626   4.10916   4.10921   4.11714
 Alpha virt. eigenvalues --    4.11726   4.12136   4.12138   4.13764   4.13766
 Alpha virt. eigenvalues --    4.14453   4.14453   4.14466   4.14468   4.14870
 Alpha virt. eigenvalues --    4.14874   4.16952   4.16956   4.17159   4.17165
 Alpha virt. eigenvalues --    4.18599   4.18600   4.21418   4.21437   4.21659
 Alpha virt. eigenvalues --    4.21687   4.33608   4.33610   4.33808   4.33892
 Alpha virt. eigenvalues --    4.35170   4.35396   4.38598   4.38738   4.38934
 Alpha virt. eigenvalues --    4.38935   4.41600   4.41729   4.41739   4.42745
 Alpha virt. eigenvalues --    4.44535   4.44547   4.45444   4.45510   4.45715
 Alpha virt. eigenvalues --    4.45763   4.45869   4.45910   4.46437   4.47006
 Alpha virt. eigenvalues --    4.50531   4.50538   4.50868   4.50875   4.59199
 Alpha virt. eigenvalues --    4.59233   4.63048   4.63049   4.78326   4.78348
 Alpha virt. eigenvalues --    4.86173   4.86174   4.95918   4.95919   5.09825
 Alpha virt. eigenvalues --    5.09831
          Condensed to atoms (all electrons):
 Mulliken atomic charges:
              1
     1  Si   0.551024
     2  C   -0.065596
     3  C    0.097437
     4  C   -0.163687
     5  H    0.067787
     6  C    0.096066
     7  C   -0.083055
     8  H    0.057983
     9  C   -0.065067
    10  H    0.059737
    11  C   -0.061943
    12  H    0.059405
    13  C   -0.082365
    14  H    0.056864
    15  C    0.109649
    16  C   -0.169942
    17  H    0.062510
    18  C    0.117355
    19  C    0.406004
    20  C   -0.623964
    21  C   -0.515709
    22  H    0.127911
    23  H    0.119639
    24  H    0.127549
    25  C   -0.523276
    26  H    0.130973
    27  H    0.122556
    28  H    0.123125
    29  C   -0.519923
    30  H    0.126593
    31  H    0.124494
    32  H    0.132707
    33  Si   0.551348
    34  C   -0.066555
    35  C    0.098196
    36  C   -0.162964
    37  H    0.066525
    38  C    0.096787
    39  C   -0.082395
    40  H    0.056151
    41  C   -0.065048
    42  H    0.059174
    43  C   -0.062105
    44  H    0.059376
    45  C   -0.082093
    46  H    0.057213
    47  C    0.109384
    48  C   -0.169351
    49  H    0.063220
    50  C    0.116891
    51  C    0.408334
    52  C   -0.625351
    53  C   -0.515585
    54  H    0.128345
    55  H    0.118916
    56  H    0.128308
    57  C   -0.521776
    58  H    0.126401
    59  H    0.119797
    60  H    0.125344
    61  C   -0.520545
    62  H    0.128786
    63  H    0.121228
    64  H    0.131202
    65  Si   0.551346
    66  C   -0.066568
    67  C    0.098299
    68  C   -0.163045
    69  H    0.066551
    70  C    0.096830
    71  C   -0.082457
    72  H    0.056173
    73  C   -0.065011
    74  H    0.059160
    75  C   -0.062135
    76  H    0.059388
    77  C   -0.082074
    78  H    0.057219
    79  C    0.109342
    80  C   -0.169311
    81  H    0.063209
    82  C    0.116847
    83  C    0.408273
    84  C   -0.625285
    85  C   -0.515588
    86  H    0.128339
    87  H    0.118919
    88  H    0.128303
    89  C   -0.521780
    90  H    0.126396
    91  H    0.119796
    92  H    0.125343
    93  C   -0.520554
    94  H    0.128788
    95  H    0.121231
    96  H    0.131197
    97  Si   0.551009
    98  C   -0.065600
    99  C    0.097418
   100  C   -0.163672
   101  H    0.067777
   102  C    0.096090
   103  C   -0.083068
   104  H    0.057987
   105  C   -0.065039
   106  H    0.059740
   107  C   -0.061999
   108  H    0.059428
   109  C   -0.082335
   110  H    0.056872
   111  C    0.109614
   112  C   -0.169979
   113  H    0.062532
   114  C    0.117381
   115  C    0.406011
   116  C   -0.623943
   117  C   -0.515710
   118  H    0.127910
   119  H    0.119645
   120  H    0.127547
   121  C   -0.523279
   122  H    0.130973
   123  H    0.122556
   124  H    0.123123
   125  C   -0.519918
   126  H    0.126590
   127  H    0.124494
   128  H    0.132706
 Sum of Mulliken atomic charges =   0.00000
 Mulliken charges with hydrogens summed into heavy atoms:
              1
     1  Si   0.551024
     2  C   -0.065596
     3  C    0.097437
     4  C   -0.095899
     6  C    0.096066
     7  C   -0.025072
     9  C   -0.005330
    11  C   -0.002538
    13  C   -0.025501
    15  C    0.109649
    16  C   -0.107432
    18  C    0.117355
    19  C    0.406004
    20  C   -0.623964
    21  C   -0.140610
    25  C   -0.146623
    29  C   -0.136128
    33  Si   0.551348
    34  C   -0.066555
    35  C    0.098196
    36  C   -0.096439
    38  C    0.096787
    39  C   -0.026244
    41  C   -0.005874
    43  C   -0.002729
    45  C   -0.024879
    47  C    0.109384
    48  C   -0.106131
    50  C    0.116891
    51  C    0.408334
    52  C   -0.625351
    53  C   -0.140016
    57  C   -0.150235
    61  C   -0.139328
    65  Si   0.551346
    66  C   -0.066568
    67  C    0.098299
    68  C   -0.096494
    70  C    0.096830
    71  C   -0.026284
    73  C   -0.005851
    75  C   -0.002747
    77  C   -0.024855
    79  C    0.109342
    80  C   -0.106103
    82  C    0.116847
    83  C    0.408273
    84  C   -0.625285
    85  C   -0.140027
    89  C   -0.150246
    93  C   -0.139338
    97  Si   0.551009
    98  C   -0.065600
    99  C    0.097418
   100  C   -0.095896
   102  C    0.096090
   103  C   -0.025081
   105  C   -0.005299
   107  C   -0.002570
   109  C   -0.025463
   111  C    0.109614
   112  C   -0.107447
   114  C    0.117381
   115  C    0.406011
   116  C   -0.623943
   117  C   -0.140608
   121  C   -0.146628
   125  C   -0.136128
 Sum of Mulliken charges with hydrogens summed into heavy atoms =   0.00000
 Electronic spatial extent (au):  <R**2>=         536167.2280
 Charge=              0.0000 electrons
 Dipole moment (field-independent basis, Debye):
    X=             -0.0005    Y=             -0.0005    Z=             -0.0001  Tot=              0.0007
 Quadrupole moment (field-independent basis, Debye-Ang):
   XX=           -381.3264   YY=           -376.6786   ZZ=           -400.7122
   XY=             -5.1896   XZ=             30.2595   YZ=             23.1474
 Traceless Quadrupole moment (field-independent basis, Debye-Ang):
   XX=              4.9127   YY=              9.5605   ZZ=            -14.4732
   XY=             -5.1896   XZ=             30.2595   YZ=             23.1474
 Octapole moment (field-independent basis, Debye-Ang**2):
  XXX=          -9551.2009  YYY=          -8638.4421  ZZZ=         -12770.5810  XYY=          -3224.2289
  XXY=          -3001.6194  XXZ=          -3545.5643  XZZ=          -2702.6862  YZZ=          -2571.4071
  YYZ=          -3647.5756  XYZ=            369.5045
 Hexadecapole moment (field-independent basis, Debye-Ang**3):
 XXXX=        -183740.8660 YYYY=        -159136.8141 ZZZZ=        -360123.1507 XXXY=         -76479.0786
 XXXZ=        -109160.9693 YYYX=         -75071.9257 YYYZ=        -100611.5175 ZZZX=        -108621.9799
 ZZZY=        -101266.9834 XXYY=         -58016.9979 XXZZ=         -77462.4617 YYZZ=         -76270.0782
 XXYZ=         -30909.8970 YYXZ=         -34005.0078 ZZXY=         -16805.4381
 N-N= 9.702447454274D+03 E-N=-2.789892596467D+04  KE= 3.617656317161D+03
 Leave Link  601 at Sat Feb  2 06:57:16 2013, MaxMem= 1073741824 cpu:       7.7
 (Enter /apps/gaussian/g09_c01/g09/l9999.exe)
 1\1\GINC-CX1-15-13-2\SP\RB3LYP TD-FC\6-31G(d,p)\C64H60Si4\JMF02\02-Feb
 -2013\0\\#p scf=verytight b3lyp/6-31g(d,p) td(singlets,nstates=25) nos
 ymm\\CSD ENTRY k01071\\0,1\Si,0,9.4118847,10.36196215,8.66643619\C,0,7
 .45586038,7.41039591,5.97347302\C,0,8.22032446,6.21507133,5.87145431\C
 ,0,9.39911189,6.03036596,6.61803795\H,0,9.68598932,6.72114773,7.204372
 23\C,0,10.15408934,4.87258156,6.5252246\C,0,11.363489,4.6989474,7.2712
 4246\H,0,11.65798086,5.38907381,7.85375691\C,0,12.09385517,3.5616789,7
 .15674082\H,0,12.89280557,3.4626282,7.66054656\C,0,11.6728799,2.515872
 32,6.28834955\H,0,12.18791766,1.72015591,6.22635364\C,0,10.54607095,2.
 64175807,5.55232483\H,0,10.28815673,1.93735696,4.96925337\C,0,9.734778
 84,3.82151799,5.63696897\C,0,8.57423746,3.98941249,4.89822601\H,0,8.29
 365978,3.29194818,4.31695697\C,0,7.79281469,5.16314289,4.98218665\C,0,
 7.91748994,8.43898512,6.85229461\C,0,8.39889068,9.26263932,7.59389834\
 C,0,10.45271453,11.44440437,7.58129421\H,0,11.1123279,10.89404775,7.10
 961127\H,0,10.9168749,12.10872244,8.13235196\H,0,9.8816481,11.90063829
 ,6.92987059\C,0,10.53534303,9.26827771,9.66182643\H,0,9.99987391,8.719
 98634,10.27311883\H,0,11.15720872,9.82230077,10.17861992\H,0,11.041534
 76,8.68508067,9.059066\C,0,8.31855776,11.37181239,9.77123377\H,0,7.741
 60265,11.94541398,9.22432883\H,0,8.8716957,11.92874064,10.35917539\H,0
 ,7.76267208,10.7744644,10.31516437\Si,0,4.65372962,2.38000067,1.529295
 58\C,0,6.60975394,5.33156691,4.22225875\C,0,5.84528986,6.5268915,4.324
 27746\C,0,4.66650243,6.71159686,3.57769382\H,0,4.379625,6.02081509,2.9
 9135954\C,0,3.91152498,7.86938126,3.67050716\C,0,2.70212532,8.04301543
 ,2.9244893\H,0,2.40763346,7.35288901,2.34197486\C,0,1.97175915,9.18028
 392,3.03899094\H,0,1.17280875,9.27933462,2.53518521\C,0,2.39273442,10.
 2260905,3.90738222\H,0,1.87769666,11.02180692,3.96937813\C,0,3.5195433
 7,10.10020475,4.64340693\H,0,3.77745759,10.80460586,5.2264784\C,0,4.33
 083548,8.92044483,4.55876279\C,0,5.49137686,8.75255034,5.29750575\H,0,
 5.77195454,9.45001465,5.87877479\C,0,6.27279963,7.57881993,5.21354512\
 C,0,6.14812438,4.3029777,3.34343715\C,0,5.66672364,3.4793235,2.6018334
 3\C,0,3.61289979,1.29755845,2.61443755\H,0,2.95328642,1.84791507,3.086
 1205\H,0,3.14873942,0.63324038,2.06337981\H,0,4.18396622,0.84132453,3.
 26586118\C,0,3.53027129,3.47368511,0.53390534\H,0,4.06574041,4.0219764
 9,-0.07738706\H,0,2.9084056,2.91966206,0.01711185\H,0,3.02407956,4.056
 88215,1.13666577\C,0,5.74705656,1.37015044,0.42449799\H,0,6.32401167,0
 .79654885,0.97140294\H,0,5.19391862,0.81322218,-0.16344362\H,0,6.30294
 224,1.96749842,-0.1194326\Si,0,12.0446,12.9089,19.7171\C,0,10.0886,9.9
 5735,17.0242\C,0,10.8531,8.76203,16.9222\C,0,12.0318,8.57732,17.6687\H
 ,0,12.3187,9.2681,18.2551\C,0,12.7868,7.41954,17.5759\C,0,13.9962,7.24
 59,18.3219\H,0,14.2907,7.93603,18.9045\C,0,14.7266,6.10863,18.2074\H,0
 ,15.5255,6.00958,18.7112\C,0,14.3056,5.06283,17.339\H,0,14.8207,4.2671
 1,17.277\C,0,13.1788,5.18871,16.603\H,0,12.9209,4.48431,16.0199\C,0,12
 .3675,6.36847,16.6877\C,0,11.207,6.53637,15.9489\H,0,10.9264,5.8389,15
 .3677\C,0,10.4256,7.7101,16.0329\C,0,10.5502,10.9859,17.903\C,0,11.031
 6,11.8096,18.6446\C,0,13.0855,13.9914,18.632\H,0,13.7451,13.441,18.160
 3\H,0,13.5496,14.6557,19.183\H,0,12.5144,14.4476,17.9806\C,0,13.1681,1
 1.8152,20.7125\H,0,12.6326,11.2669,21.3238\H,0,13.7899,12.3693,21.2293
 \H,0,13.6743,11.232,20.1098\C,0,10.9513,13.9188,20.8219\H,0,10.3743,14
 .4924,20.275\H,0,11.5044,14.4757,21.4099\H,0,10.3954,13.3214,21.3659\S
 i,0,7.28647,4.92695,12.58\C,0,9.24249,7.87852,15.273\C,0,8.47803,9.073
 85,15.375\C,0,7.29924,9.25855,14.6284\H,0,7.01236,8.56777,14.0421\C,0,
 6.54426,10.4163,14.7212\C,0,5.33486,10.59,13.9752\H,0,5.04037,9.89984,
 13.3927\C,0,4.6045,11.7272,14.0897\H,0,3.80555,11.8263,13.5859\C,0,5.0
 2547,12.773,14.9581\H,0,4.51043,13.5688,15.0201\C,0,6.15228,12.6472,15
 .6941\H,0,6.41019,13.3516,16.2772\C,0,6.96357,11.4674,15.6095\C,0,8.12
 411,11.2995,16.3482\H,0,8.40469,11.997,16.9295\C,0,8.90554,10.1258,16.
 2642\C,0,8.78086,6.84993,14.3941\C,0,8.29946,6.02628,13.6525\C,0,6.245
 64,3.84451,13.6651\H,0,5.58602,4.39487,14.1368\H,0,5.78148,3.18019,13.
 1141\H,0,6.8167,3.38828,14.3166\C,0,6.16301,6.02064,11.5846\H,0,6.6984
 8,6.56893,10.9733\H,0,5.54114,5.46662,11.0678\H,0,5.65682,6.60384,12.1
 874\C,0,8.37979,3.9171,11.4752\H,0,8.95675,3.3435,12.0221\H,0,7.82666,
 3.36018,10.8873\H,0,8.93568,4.51445,10.9313\\Version=EM64L-G09RevC.01\
 HF=-3632.318966\RMSD=4.084e-09\PG=C01 [X(C64H60Si4)]\\@


 HAPPINESS IS NOT HAVING WHAT YOU WANT --
 HAPPINESS IS WANTING WHAT YOU HAVE!

              -- FROM MRS. SEVERN'S DESK
 Job cpu time:  3 days  0 hours 42 minutes 47.8 seconds.
 File lengths (MBytes):  RWF=   9046 Int=      0 D2E=      0 Chk=   1484 Scr=      1
 Normal termination of Gaussian 09 at Sat Feb  2 06:57:20 2013.
