 Entering Gaussian System, Link 0=g03
 Input=tipsp_631gdp_raman_sp_tddft.com
 Output=tipsp_631gdp_raman_sp_tddft.log
 Initial command:
 /apps/gaussian/g09/g09/l1.exe /tmp/pbs.489811.cx1b/Gau-5291.inp -scrdir=/tmp/pbs.489811.cx1b/
 Entering Link 1 = /apps/gaussian/g09/g09/l1.exe PID=      5299.
  
 Copyright (c) 1988,1990,1992,1993,1995,1998,2003,2009, Gaussian, Inc.
                  All Rights Reserved.
  
 This is part of the Gaussian(R) 09 program.  It is based on
 the Gaussian(R) 03 system (copyright 2003, Gaussian, Inc.),
 the Gaussian(R) 98 system (copyright 1998, Gaussian, Inc.),
 the Gaussian(R) 94 system (copyright 1995, Gaussian, Inc.),
 the Gaussian 92(TM) system (copyright 1992, Gaussian, Inc.),
 the Gaussian 90(TM) system (copyright 1990, Gaussian, Inc.),
 the Gaussian 88(TM) system (copyright 1988, Gaussian, Inc.),
 the Gaussian 86(TM) system (copyright 1986, Carnegie Mellon
 University), and the Gaussian 82(TM) system (copyright 1983,
 Carnegie Mellon University). Gaussian is a federally registered
 trademark of Gaussian, Inc.
  
 This software contains proprietary and confidential information,
 including trade secrets, belonging to Gaussian, Inc.
  
 This software is provided under written license and may be
 used, copied, transmitted, or stored only in accord with that
 written license.
  
 The following legend is applicable only to US Government
 contracts under FAR:
  
                    RESTRICTED RIGHTS LEGEND
  
 Use, reproduction and disclosure by the US Government is
 subject to restrictions as set forth in subparagraphs (a)
 and (c) of the Commercial Computer Software - Restricted
 Rights clause in FAR 52.227-19.
  
 Gaussian, Inc.
 340 Quinnipiac St., Bldg. 40, Wallingford CT 06492
  
  
 ---------------------------------------------------------------
 Warning -- This program may not be used in any manner that
 competes with the business of Gaussian, Inc. or will provide
 assistance to any competitor of Gaussian, Inc.  The licensee
 of this program is prohibited from giving any competitor of
 Gaussian, Inc. access to this program.  By using this program,
 the user acknowledges that Gaussian, Inc. is engaged in the
 business of creating and licensing software in the field of
 computational chemistry and represents and warrants to the
 licensee that it is not a competitor of Gaussian, Inc. and that
 it will not use this program in any manner prohibited above.
 ---------------------------------------------------------------
  

 Cite this work as:
 Gaussian 09, Revision A.02,
 M. J. Frisch, G. W. Trucks, H. B. Schlegel, G. E. Scuseria, 
 M. A. Robb, J. R. Cheeseman, G. Scalmani, V. Barone, B. Mennucci, 
 G. A. Petersson, H. Nakatsuji, M. Caricato, X. Li, H. P. Hratchian, 
 A. F. Izmaylov, J. Bloino, G. Zheng, J. L. Sonnenberg, M. Hada, 
 M. Ehara, K. Toyota, R. Fukuda, J. Hasegawa, M. Ishida, T. Nakajima, 
 Y. Honda, O. Kitao, H. Nakai, T. Vreven, J. A. Montgomery, Jr., 
 J. E. Peralta, F. Ogliaro, M. Bearpark, J. J. Heyd, E. Brothers, 
 K. N. Kudin, V. N. Staroverov, R. Kobayashi, J. Normand, 
 K. Raghavachari, A. Rendell, J. C. Burant, S. S. Iyengar, J. Tomasi, 
 M. Cossi, N. Rega, J. M. Millam, M. Klene, J. E. Knox, J. B. Cross, 
 V. Bakken, C. Adamo, J. Jaramillo, R. Gomperts, R. E. Stratmann, 
 O. Yazyev, A. J. Austin, R. Cammi, C. Pomelli, J. W. Ochterski, 
 R. L. Martin, K. Morokuma, V. G. Zakrzewski, G. A. Voth, 
 P. Salvador, J. J. Dannenberg, S. Dapprich, A. D. Daniels, 
 O. Farkas, J. B. Foresman, J. V. Ortiz, J. Cioslowski, 
 and D. J. Fox, Gaussian, Inc., Wallingford CT, 2009.
 
 ******************************************
 Gaussian 09:  EM64L-G09RevA.02 11-Jun-2009
                 1-Jan-2012 
 ******************************************
 %Chk=tipsp_631gdp_raman_sp_tddft.chk
 %Mem=8Gb
 %nproc=8
 Will use up to    8 processors via shared memory.
 ----------------------------------------------------------------------
 #p guess=read geom=checkpoint scf=verytight b3lyp/6-31g(d,p) td(single
 ts,nstates=50)
 ----------------------------------------------------------------------
 1/29=2,38=1/1;
 2/12=2,40=1/2;
 3/5=1,6=6,7=101,11=2,14=-4,16=1,25=1,30=1,74=-5,116=-2/1,2,8,3;
 4/5=1/1;
 5/5=2,17=3,38=6/2;
 8/6=1,10=2,108=50/1;
 9/41=50,42=1,48=1/14;
 6/7=2,8=2,9=2,10=2/1;
 99/5=1,9=1/99;
 Leave Link    1 at Sun Jan  1 15:49:00 2012, MaxMem= 1073741824 cpu:       0.3
 (Enter /apps/gaussian/g09/g09/l101.exe)
 -------
 Autjob.
 -------
 Redundant internal coordinates taken from checkpoint file:
 tipsp_631gdp_raman_sp_tddft.chk
 Charge =  0 Multiplicity = 1
 Si,0,-5.923374551,-0.0291205997,-0.098461426
 C,0,-1.4325403314,0.0016267433,-0.0167117414
 C,0,-0.7240845301,1.2375509936,-0.0215712733
 C,0,-1.3997166917,2.4761917655,-0.0425142379
 H,0,-2.4847023907,2.4731206593,-0.0564492521
 C,0,-0.7207480552,3.6895208365,-0.0464374162
 C,0,-1.4051011861,4.9497148008,-0.0667719307
 H,0,-2.4916548254,4.9476543951,-0.079200587
 C,0,-0.7090148585,6.1253610976,-0.069988797
 H,0,-1.2386096668,7.0733295747,-0.0853170379
 C,0,0.7225919786,6.1238928422,-0.0531619639
 H,0,1.2543946854,7.0707451317,-0.056085595
 C,0,1.4159454715,4.9468012211,-0.0335746004
 H,0,2.5024934599,4.9425005486,-0.0207000684
 C,0,0.7287032071,3.6880405428,-0.029276844
 C,0,1.4051316493,2.4734326562,-0.0094292344
 H,0,2.4900452553,2.4686245624,0.0023724322
 C,0,0.7270383778,1.2360045501,-0.0044983081
 C,0,-2.8527240353,0.0022873941,-0.0358184153
 C,0,-4.0775238362,-0.0008140259,-0.0529609539
 C,0,-6.4525282406,-0.4516626641,-1.8921296928
 H,0,-7.5531212621,-0.4712247868,-1.8851883592
 C,0,-6.0072456788,0.6251896903,-2.9004041405
 H,0,-4.915646132,0.7195102006,-2.9210290751
 H,0,-6.4206186876,1.6121389804,-2.6684084943
 H,0,-6.3325368309,0.3656521342,-3.9157107119
 C,0,-5.9629434935,-1.8414137913,-2.3414612107
 H,0,-6.2870172244,-2.0542932663,-3.3679015665
 H,0,-6.3479692408,-2.6449410079,-1.705299828
 H,0,-4.8686330743,-1.8992653554,-2.3260709196
 C,0,-6.4789905957,-1.43609046,1.0821795633
 H,0,-6.0405418923,-2.333235794,0.6189451419
 C,0,-8.0054254978,-1.6429823806,1.1235119352
 H,0,-8.2602747341,-2.5425313017,1.6978936583
 H,0,-8.4405902414,-1.7596086273,0.1250985661
 H,0,-8.5112407193,-0.800532468,1.6078767354
 C,0,-5.8968579373,-1.3400519877,2.5047960363
 H,0,-6.3268081825,-0.5012013354,3.062256497
 H,0,-4.8107831559,-1.2079328124,2.4924773705
 H,0,-6.1169514848,-2.251549005,3.0749663227
 C,0,-6.514072394,1.7433495404,0.3373640359
 H,0,-5.9764455637,2.3670427471,-0.3931038218
 C,0,-8.0210153571,1.9738531498,0.1113310813
 H,0,-8.3386066798,1.7033113126,-0.9010584248
 H,0,-8.2774801636,3.0301690388,0.2620762177
 H,0,-8.6297425274,1.3939363908,0.8136444517
 C,0,-6.0887353815,2.2253516655,1.7367875706
 H,0,-5.0201154167,2.071379572,1.9172539261
 H,0,-6.6375829738,1.700938319,2.5262591517
 H,0,-6.2970391175,3.2958852889,1.8585873866
 Si,0,5.9233831214,0.0291230832,0.0985134878
 C,0,1.4325463943,-0.001684536,0.016848885
 C,0,0.7240911043,-1.2376066791,0.021697593
 C,0,1.3997235158,-2.4762495357,0.0426147216
 H,0,2.4847093624,-2.4731788773,0.0565370558
 C,0,0.720755227,-3.6895785282,0.0465281463
 C,0,1.4051079063,-4.9497717145,0.0668413353
 H,0,2.4916618327,-4.9477150627,0.0792615841
 C,0,0.7090219717,-6.1254191974,0.070045386
 H,0,1.2386186271,-7.0733864273,0.0853565885
 C,0,-0.7225834741,-6.1239489709,0.0532287593
 H,0,-1.2543885802,-7.0708004826,0.0561403202
 C,0,-1.4159393677,-4.9468584854,0.03366339
 H,0,-2.5024867932,-4.9425590938,0.0207949459
 C,0,-0.7286958329,-3.6880979348,0.0293777654
 C,0,-1.4051244099,-2.4734904272,0.0095480898
 H,0,-2.4900375224,-2.4686831229,-0.0022542399
 C,0,-0.7270330514,-1.2360599316,0.004637142
 C,0,2.8527309901,-0.0023422787,0.0359215405
 C,0,4.0775317676,0.0007648304,0.0530077651
 C,0,6.4525105798,0.451525259,1.8922235045
 H,0,7.5531003489,0.4712131875,1.8852616943
 C,0,6.0073607671,-0.625482536,2.9003916868
 H,0,4.9157706625,-0.7199140838,2.9210227806
 H,0,6.4208271939,-1.6123654338,2.6682846656
 H,0,6.33264086,-0.3660189381,3.9157201287
 C,0,5.9627986041,1.8411727925,2.3417333492
 H,0,6.2868898769,2.0539649669,3.3681860082
 H,0,6.3477196346,2.644810327,1.7056479607
 H,0,4.8684822855,1.8989122213,2.3263885938
 C,0,6.4789781381,1.4361943461,-1.0820133639
 H,0,6.0407250317,2.3333380178,-0.6185908482
 C,0,8.005435711,1.6428779262,-1.1235620329
 H,0,8.2603201882,2.5424837043,-1.6978390713
 H,0,8.4407840256,1.7592808204,-0.1252012474
 H,0,8.5110511278,0.8004349624,-1.6081476846
 C,0,5.8966082413,1.3404091413,-2.504549566
 H,0,6.3262986321,0.5015196866,-3.0621540559
 H,0,4.8105100847,1.2085003161,-2.4920674052
 H,0,6.116794835,2.2519159016,-3.0746670212
 C,0,6.5141213111,-1.7432784917,-0.3375151582
 H,0,5.9764119472,-2.3670861581,0.3927940705
 C,0,8.0210417653,-1.9738592768,-0.1114153644
 H,0,8.3385694931,-1.7035398843,0.9010523717
 H,0,8.2774839384,-3.0301512509,-0.2623626706
 H,0,8.629838,-1.3938128488,-0.8135622005
 C,0,6.0888941655,-2.225013091,-1.7370694612
 H,0,5.0202882548,-2.0710042958,-1.9175871017
 H,0,6.637805728,-1.7004465134,-2.5263965614
 H,0,6.2972065336,-3.2955240791,-1.8590584139
 Recover connectivity data from disk.
                    Isotopes and Nuclear Properties:
 (Nuclear quadrupole moments (NQMom) in fm**2, nuclear magnetic moments (NMagM)
  in nuclear magnetons)

  Atom         1           2           3           4           5           6           7           8           9          10
 IAtWgt=          28          12          12          12           1          12          12           1          12           1
 AtmWgt=  27.9769284  12.0000000  12.0000000  12.0000000   1.0078250  12.0000000  12.0000000   1.0078250  12.0000000   1.0078250
 NucSpn=           0           0           0           0           1           0           0           1           0           1
 AtZEff= -12.2500000  -3.6000000  -3.6000000  -3.6000000  -1.0000000  -3.6000000  -3.6000000  -1.0000000  -3.6000000  -1.0000000
 NQMom=    0.0000000   0.0000000   0.0000000   0.0000000   0.0000000   0.0000000   0.0000000   0.0000000   0.0000000   0.0000000
 NMagM=    0.0000000   0.0000000   0.0000000   0.0000000   2.7928460   0.0000000   0.0000000   2.7928460   0.0000000   2.7928460

  Atom        11          12          13          14          15          16          17          18          19          20
 IAtWgt=          12           1          12           1          12          12           1          12          12          12
 AtmWgt=  12.0000000   1.0078250  12.0000000   1.0078250  12.0000000  12.0000000   1.0078250  12.0000000  12.0000000  12.0000000
 NucSpn=           0           1           0           1           0           0           1           0           0           0
 AtZEff=  -3.6000000  -1.0000000  -3.6000000  -1.0000000  -3.6000000  -3.6000000  -1.0000000  -3.6000000  -3.6000000  -3.6000000
 NQMom=    0.0000000   0.0000000   0.0000000   0.0000000   0.0000000   0.0000000   0.0000000   0.0000000   0.0000000   0.0000000
 NMagM=    0.0000000   2.7928460   0.0000000   2.7928460   0.0000000   0.0000000   2.7928460   0.0000000   0.0000000   0.0000000

  Atom        21          22          23          24          25          26          27          28          29          30
 IAtWgt=          12           1          12           1           1           1          12           1           1           1
 AtmWgt=  12.0000000   1.0078250  12.0000000   1.0078250   1.0078250   1.0078250  12.0000000   1.0078250   1.0078250   1.0078250
 NucSpn=           0           1           0           1           1           1           0           1           1           1
 AtZEff=  -3.6000000  -1.0000000  -3.6000000  -1.0000000  -1.0000000  -1.0000000  -3.6000000  -1.0000000  -1.0000000  -1.0000000
 NQMom=    0.0000000   0.0000000   0.0000000   0.0000000   0.0000000   0.0000000   0.0000000   0.0000000   0.0000000   0.0000000
 NMagM=    0.0000000   2.7928460   0.0000000   2.7928460   2.7928460   2.7928460   0.0000000   2.7928460   2.7928460   2.7928460

  Atom        31          32          33          34          35          36          37          38          39          40
 IAtWgt=          12           1          12           1           1           1          12           1           1           1
 AtmWgt=  12.0000000   1.0078250  12.0000000   1.0078250   1.0078250   1.0078250  12.0000000   1.0078250   1.0078250   1.0078250
 NucSpn=           0           1           0           1           1           1           0           1           1           1
 AtZEff=  -3.6000000  -1.0000000  -3.6000000  -1.0000000  -1.0000000  -1.0000000  -3.6000000  -1.0000000  -1.0000000  -1.0000000
 NQMom=    0.0000000   0.0000000   0.0000000   0.0000000   0.0000000   0.0000000   0.0000000   0.0000000   0.0000000   0.0000000
 NMagM=    0.0000000   2.7928460   0.0000000   2.7928460   2.7928460   2.7928460   0.0000000   2.7928460   2.7928460   2.7928460

  Atom        41          42          43          44          45          46          47          48          49          50
 IAtWgt=          12           1          12           1           1           1          12           1           1           1
 AtmWgt=  12.0000000   1.0078250  12.0000000   1.0078250   1.0078250   1.0078250  12.0000000   1.0078250   1.0078250   1.0078250
 NucSpn=           0           1           0           1           1           1           0           1           1           1
 AtZEff=  -3.6000000  -1.0000000  -3.6000000  -1.0000000  -1.0000000  -1.0000000  -3.6000000  -1.0000000  -1.0000000  -1.0000000
 NQMom=    0.0000000   0.0000000   0.0000000   0.0000000   0.0000000   0.0000000   0.0000000   0.0000000   0.0000000   0.0000000
 NMagM=    0.0000000   2.7928460   0.0000000   2.7928460   2.7928460   2.7928460   0.0000000   2.7928460   2.7928460   2.7928460

  Atom        51          52          53          54          55          56          57          58          59          60
 IAtWgt=          28          12          12          12           1          12          12           1          12           1
 AtmWgt=  27.9769284  12.0000000  12.0000000  12.0000000   1.0078250  12.0000000  12.0000000   1.0078250  12.0000000   1.0078250
 NucSpn=           0           0           0           0           1           0           0           1           0           1
 AtZEff= -12.2500000  -3.6000000  -3.6000000  -3.6000000  -1.0000000  -3.6000000  -3.6000000  -1.0000000  -3.6000000  -1.0000000
 NQMom=    0.0000000   0.0000000   0.0000000   0.0000000   0.0000000   0.0000000   0.0000000   0.0000000   0.0000000   0.0000000
 NMagM=    0.0000000   0.0000000   0.0000000   0.0000000   2.7928460   0.0000000   0.0000000   2.7928460   0.0000000   2.7928460

  Atom        61          62          63          64          65          66          67          68          69          70
 IAtWgt=          12           1          12           1          12          12           1          12          12          12
 AtmWgt=  12.0000000   1.0078250  12.0000000   1.0078250  12.0000000  12.0000000   1.0078250  12.0000000  12.0000000  12.0000000
 NucSpn=           0           1           0           1           0           0           1           0           0           0
 AtZEff=  -3.6000000  -1.0000000  -3.6000000  -1.0000000  -3.6000000  -3.6000000  -1.0000000  -3.6000000  -3.6000000  -3.6000000
 NQMom=    0.0000000   0.0000000   0.0000000   0.0000000   0.0000000   0.0000000   0.0000000   0.0000000   0.0000000   0.0000000
 NMagM=    0.0000000   2.7928460   0.0000000   2.7928460   0.0000000   0.0000000   2.7928460   0.0000000   0.0000000   0.0000000

  Atom        71          72          73          74          75          76          77          78          79          80
 IAtWgt=          12           1          12           1           1           1          12           1           1           1
 AtmWgt=  12.0000000   1.0078250  12.0000000   1.0078250   1.0078250   1.0078250  12.0000000   1.0078250   1.0078250   1.0078250
 NucSpn=           0           1           0           1           1           1           0           1           1           1
 AtZEff=  -3.6000000  -1.0000000  -3.6000000  -1.0000000  -1.0000000  -1.0000000  -3.6000000  -1.0000000  -1.0000000  -1.0000000
 NQMom=    0.0000000   0.0000000   0.0000000   0.0000000   0.0000000   0.0000000   0.0000000   0.0000000   0.0000000   0.0000000
 NMagM=    0.0000000   2.7928460   0.0000000   2.7928460   2.7928460   2.7928460   0.0000000   2.7928460   2.7928460   2.7928460

  Atom        81          82          83          84          85          86          87          88          89          90
 IAtWgt=          12           1          12           1           1           1          12           1           1           1
 AtmWgt=  12.0000000   1.0078250  12.0000000   1.0078250   1.0078250   1.0078250  12.0000000   1.0078250   1.0078250   1.0078250
 NucSpn=           0           1           0           1           1           1           0           1           1           1
 AtZEff=  -3.6000000  -1.0000000  -3.6000000  -1.0000000  -1.0000000  -1.0000000  -3.6000000  -1.0000000  -1.0000000  -1.0000000
 NQMom=    0.0000000   0.0000000   0.0000000   0.0000000   0.0000000   0.0000000   0.0000000   0.0000000   0.0000000   0.0000000
 NMagM=    0.0000000   2.7928460   0.0000000   2.7928460   2.7928460   2.7928460   0.0000000   2.7928460   2.7928460   2.7928460

  Atom        91          92          93          94          95          96          97          98          99         100
 IAtWgt=          12           1          12           1           1           1          12           1           1           1
 AtmWgt=  12.0000000   1.0078250  12.0000000   1.0078250   1.0078250   1.0078250  12.0000000   1.0078250   1.0078250   1.0078250
 NucSpn=           0           1           0           1           1           1           0           1           1           1
 AtZEff=  -3.6000000  -1.0000000  -3.6000000  -1.0000000  -1.0000000  -1.0000000  -3.6000000  -1.0000000  -1.0000000  -1.0000000
 NQMom=    0.0000000   0.0000000   0.0000000   0.0000000   0.0000000   0.0000000   0.0000000   0.0000000   0.0000000   0.0000000
 NMagM=    0.0000000   2.7928460   0.0000000   2.7928460   2.7928460   2.7928460   0.0000000   2.7928460   2.7928460   2.7928460
 Leave Link  101 at Sun Jan  1 15:49:00 2012, MaxMem= 1073741824 cpu:       1.0
 (Enter /apps/gaussian/g09/g09/l202.exe)
 Stoichiometry    C44H54Si2
 Framework group  C1[X(C44H54Si2)]
 Deg. of freedom   294
 Full point group                 C1      NOp   1
 Largest Abelian subgroup         C1      NOp   1
 Largest concise Abelian subgroup C1      NOp   1
                         Standard orientation:                         
 ---------------------------------------------------------------------
 Center     Atomic      Atomic             Coordinates (Angstroms)
 Number     Number       Type             X           Y           Z
 ---------------------------------------------------------------------
      1         14           0        5.923375    0.029025   -0.098491
      2          6           0        1.432541   -0.001659   -0.016741
      3          6           0        0.724067   -1.237573   -0.021601
      4          6           0        1.399682   -2.476223   -0.042544
      5          1           0        2.484667   -2.473168   -0.056479
      6          6           0        0.720696   -3.689543   -0.046467
      7          6           0        1.405031   -4.949746   -0.066801
      8          1           0        2.491585   -4.947701   -0.079230
      9          6           0        0.708928   -6.125383   -0.070018
     10          1           0        1.238509   -7.073359   -0.085346
     11          6           0       -0.722679   -6.123894   -0.053191
     12          1           0       -1.254495   -7.070739   -0.056115
     13          6           0       -1.416016   -4.946793   -0.033604
     14          1           0       -2.502564   -4.942477   -0.020729
     15          6           0       -0.728755   -3.688042   -0.029306
     16          6           0       -1.405167   -2.473424   -0.009459
     17          1           0       -2.490080   -2.468601    0.002343
     18          6           0       -0.727056   -1.236006   -0.004528
     19          6           0        2.852724   -0.002340   -0.035848
     20          6           0        4.077524    0.000744   -0.052990
     21          6           0        6.452535    0.451559   -1.892159
     22          1           0        7.553128    0.471106   -1.885218
     23          6           0        6.007237   -0.625287   -2.900433
     24          1           0        4.915636   -0.719592   -2.921058
     25          1           0        6.420596   -1.612242   -2.668438
     26          1           0        6.332532   -0.365754   -3.915740
     27          6           0        5.962970    1.841317   -2.341491
     28          1           0        6.287047    2.054192   -3.367931
     29          1           0        6.348007    2.644839   -1.705329
     30          1           0        4.868660    1.899184   -2.326100
     31          6           0        6.479011    1.435987    1.082150
     32          1           0        6.040575    2.333138    0.618916
     33          6           0        8.005449    1.642857    1.123483
     34          1           0        8.260311    2.542402    1.697864
     35          1           0        8.440616    1.759477    0.125069
     36          1           0        8.511252    0.800400    1.607847
     37          6           0        5.896877    1.339956    2.504767
     38          1           0        6.326816    0.501100    3.062227
     39          1           0        4.810801    1.207853    2.492448
     40          1           0        6.116984    2.251450    3.074937
     41          6           0        6.514048   -1.743454    0.337335
     42          1           0        5.976412   -2.367139   -0.393133
     43          6           0        8.020987   -1.973979    0.111302
     44          1           0        8.338583   -1.703442   -0.901088
     45          1           0        8.277437   -3.030299    0.262047
     46          1           0        8.629723   -1.394071    0.813615
     47          6           0        6.088704   -2.225450    1.736758
     48          1           0        5.020086   -2.071463    1.917225
     49          1           0        6.637559   -1.701044    2.526230
     50          1           0        6.296992   -3.295987    1.858558
     51         14           0       -5.923383   -0.029050    0.098484
     52          6           0       -1.432546    0.001693    0.016820
     53          6           0       -0.724073    1.237605    0.021668
     54          6           0       -1.399688    2.476258    0.042585
     55          1           0       -2.484674    2.473203    0.056508
     56          6           0       -0.720702    3.689577    0.046499
     57          6           0       -1.405037    4.949780    0.066812
     58          1           0       -2.491591    4.947739    0.079232
     59          6           0       -0.708934    6.125418    0.070016
     60          1           0       -1.238518    7.073392    0.085327
     61          6           0        0.722671    6.123927    0.053199
     62          1           0        1.254490    7.070771    0.056111
     63          6           0        1.416010    4.946827    0.033634
     64          1           0        2.502557    4.942512    0.020766
     65          6           0        0.728749    3.688076    0.029348
     66          6           0        1.405160    2.473459    0.009519
     67          1           0        2.490073    2.468636   -0.002284
     68          6           0        0.727051    1.236038    0.004608
     69          6           0       -2.852731    0.002371    0.035892
     70          6           0       -4.077532   -0.000718    0.052978
     71          6           0       -6.452517   -0.451445    1.892194
     72          1           0       -7.553107   -0.471117    1.885232
     73          6           0       -6.007352    0.625556    2.900362
     74          1           0       -4.915760    0.719972    2.920993
     75          1           0       -6.420804    1.612445    2.668255
     76          1           0       -6.332635    0.366098    3.915691
     77          6           0       -5.962825   -1.841099    2.341704
     78          1           0       -6.286919   -2.053887    3.368157
     79          1           0       -6.347757   -2.644732    1.705619
     80          1           0       -4.868509   -1.898854    2.326359
     81          6           0       -6.478998   -1.436114   -1.082043
     82          1           0       -6.040758   -2.333264   -0.618620
     83          6           0       -8.005459   -1.642776   -1.123591
     84          1           0       -8.260356   -2.542378   -1.697868
     85          1           0       -8.440809   -1.759172   -0.125231
     86          1           0       -8.511062   -0.800325   -1.608177
     87          6           0       -5.896627   -1.340337   -2.504579
     88          1           0       -6.326306   -0.501441   -3.062183
     89          1           0       -4.810527   -1.208443   -2.492097
     90          1           0       -6.116827   -2.251840   -3.074696
     91          6           0       -6.514096    1.743360   -0.337544
     92          1           0       -5.976378    2.367160    0.392765
     93          6           0       -8.021013    1.973962   -0.111445
     94          1           0       -8.338545    1.703647    0.901023
     95          1           0       -8.277441    3.030258   -0.262392
     96          1           0       -8.629818    1.393924   -0.813591
     97          6           0       -6.088862    2.225088   -1.737099
     98          1           0       -5.020259    2.071064   -1.917616
     99          1           0       -6.637781    1.700529   -2.526426
    100          1           0       -6.297159    3.295602   -1.859088
 ---------------------------------------------------------------------
 Rotational constants (GHZ):      0.0852992      0.0329324      0.0259749
 Leave Link  202 at Sun Jan  1 15:49:00 2012, MaxMem= 1073741824 cpu:       0.1
 (Enter /apps/gaussian/g09/g09/l301.exe)
 Standard basis: 6-31G(d,p) (6D, 7F)
 Ernie: Thresh=  0.10000D-02 Tol=  0.10000D-05 Strict=F.
 There are   968 symmetry adapted basis functions of A   symmetry.
 Integral buffers will be    131072 words long.
 Raffenetti 2 integral format.
 Two-electron integral symmetry is turned on.
   968 basis functions,  1714 primitive gaussians,   968 cartesian basis functions
   173 alpha electrons      173 beta electrons
       nuclear repulsion energy      5759.9323116285 Hartrees.
 IExCor=  402 DFT=T Ex+Corr=B3LYP ExCW=0 ScaHFX=  0.200000
 ScaDFX=  0.800000  0.720000  1.000000  0.810000 ScalE2=  1.000000  1.000000
 IRadAn=      0 IRanWt=     -1 IRanGd=            0 ICorTp=0
 NAtoms=  100 NActive=  100 NUniq=  100 SFac= 7.50D-01 NAtFMM=   80 NAOKFM=T Big=T
 Leave Link  301 at Sun Jan  1 15:49:00 2012, MaxMem= 1073741824 cpu:       0.9
 (Enter /apps/gaussian/g09/g09/l302.exe)
 NPDir=0 NMtPBC=     1 NCelOv=     1 NCel=       1 NClECP=     1 NCelD=      1
         NCelK=      1 NCelE2=     1 NClLst=     1 CellRange=     0.0.
 One-electron integrals computed using PRISM.
 NBasis=   968 RedAO= T  NBF=   968
 NBsUse=   968 1.00D-06 NBFU=   968
 Precomputing XC quadrature grid using
 IXCGrd= 2 IRadAn=           0 IRanWt=          -1 IRanGd=           0 AccXCQ= 1.00D-10.
 NRdTot=    6498 NPtTot=      831432 NUsed=      878231 NTot=      878263
 NSgBfM=   875   876   879   883   884 NAtAll=   100   100.
 Leave Link  302 at Sun Jan  1 15:49:08 2012, MaxMem= 1073741824 cpu:      57.9
 (Enter /apps/gaussian/g09/g09/l308.exe)
 Leave Link  308 at Sun Jan  1 15:49:09 2012, MaxMem= 1073741824 cpu:       3.8
 (Enter /apps/gaussian/g09/g09/l303.exe)
 DipDrv:  MaxL=1.
 Leave Link  303 at Sun Jan  1 15:49:09 2012, MaxMem= 1073741824 cpu:       2.4
 (Enter /apps/gaussian/g09/g09/l401.exe)
 Initial guess read from the checkpoint file:  tipsp_631gdp_raman_sp_tddft.chk
 B after Tr=     0.000000    0.000000    0.000000
         Rot=    1.000000    0.000000    0.000000    0.000000 Ang=   0.00 deg.
 Guess basis will be translated and rotated to current coordinates.
 Initial guess orbital symmetries:
       Occupied  (A) (A) (A) (A) (A) (A) (A) (A) (A) (A) (A) (A)
                 (A) (A) (A) (A) (A) (A) (A) (A) (A) (A) (A) (A)
                 (A) (A) (A) (A) (A) (A) (A) (A) (A) (A) (A) (A)
                 (A) (A) (A) (A) (A) (A) (A) (A) (A) (A) (A) (A)
                 (A) (A) (A) (A) (A) (A) (A) (A) (A) (A) (A) (A)
                 (A) (A) (A) (A) (A) (A) (A) (A) (A) (A) (A) (A)
                 (A) (A) (A) (A) (A) (A) (A) (A) (A) (A) (A) (A)
                 (A) (A) (A) (A) (A) (A) (A) (A) (A) (A) (A) (A)
                 (A) (A) (A) (A) (A) (A) (A) (A) (A) (A) (A) (A)
                 (A) (A) (A) (A) (A) (A) (A) (A) (A) (A) (A) (A)
                 (A) (A) (A) (A) (A) (A) (A) (A) (A) (A) (A) (A)
                 (A) (A) (A) (A) (A) (A) (A) (A) (A) (A) (A) (A)
                 (A) (A) (A) (A) (A) (A) (A) (A) (A) (A) (A) (A)
                 (A) (A) (A) (A) (A) (A) (A) (A) (A) (A) (A) (A)
                 (A) (A) (A) (A) (A)
       Virtual   (A) (A) (A) (A) (A) (A) (A) (A) (A) (A) (A) (A)
                 (A) (A) (A) (A) (A) (A) (A) (A) (A) (A) (A) (A)
                 (A) (A) (A) (A) (A) (A) (A) (A) (A) (A) (A) (A)
                 (A) (A) (A) (A) (A) (A) (A) (A) (A) (A) (A) (A)
                 (A) (A) (A) (A) (A) (A) (A) (A) (A) (A) (A) (A)
                 (A) (A) (A) (A) (A) (A) (A) (A) (A) (A) (A) (A)
                 (A) (A) (A) (A) (A) (A) (A) (A) (A) (A) (A) (A)
                 (A) (A) (A) (A) (A) (A) (A) (A) (A) (A) (A) (A)
                 (A) (A) (A) (A) (A) (A) (A) (A) (A) (A) (A) (A)
                 (A) (A) (A) (A) (A) (A) (A) (A) (A) (A) (A) (A)
                 (A) (A) (A) (A) (A) (A) (A) (A) (A) (A) (A) (A)
                 (A) (A) (A) (A) (A) (A) (A) (A) (A) (A) (A) (A)
                 (A) (A) (A) (A) (A) (A) (A) (A) (A) (A) (A) (A)
                 (A) (A) (A) (A) (A) (A) (A) (A) (A) (A) (A) (A)
                 (A) (A) (A) (A) (A) (A) (A) (A) (A) (A) (A) (A)
                 (A) (A) (A) (A) (A) (A) (A) (A) (A) (A) (A) (A)
                 (A) (A) (A) (A) (A) (A) (A) (A) (A) (A) (A) (A)
                 (A) (A) (A) (A) (A) (A) (A) (A) (A) (A) (A) (A)
                 (A) (A) (A) (A) (A) (A) (A) (A) (A) (A) (A) (A)
                 (A) (A) (A) (A) (A) (A) (A) (A) (A) (A) (A) (A)
                 (A) (A) (A) (A) (A) (A) (A) (A) (A) (A) (A) (A)
                 (A) (A) (A) (A) (A) (A) (A) (A) (A) (A) (A) (A)
                 (A) (A) (A) (A) (A) (A) (A) (A) (A) (A) (A) (A)
                 (A) (A) (A) (A) (A) (A) (A) (A) (A) (A) (A) (A)
                 (A) (A) (A) (A) (A) (A) (A) (A) (A) (A) (A) (A)
                 (A) (A) (A) (A) (A) (A) (A) (A) (A) (A) (A) (A)
                 (A) (A) (A) (A) (A) (A) (A) (A) (A) (A) (A) (A)
                 (A) (A) (A) (A) (A) (A) (A) (A) (A) (A) (A) (A)
                 (A) (A) (A) (A) (A) (A) (A) (A) (A) (A) (A) (A)
                 (A) (A) (A) (A) (A) (A) (A) (A) (A) (A) (A) (A)
                 (A) (A) (A) (A) (A) (A) (A) (A) (A) (A) (A) (A)
                 (A) (A) (A) (A) (A) (A) (A) (A) (A) (A) (A) (A)
                 (A) (A) (A) (A) (A) (A) (A) (A) (A) (A) (A) (A)
                 (A) (A) (A) (A) (A) (A) (A) (A) (A) (A) (A) (A)
                 (A) (A) (A) (A) (A) (A) (A) (A) (A) (A) (A) (A)
                 (A) (A) (A) (A) (A) (A) (A) (A) (A) (A) (A) (A)
                 (A) (A) (A) (A) (A) (A) (A) (A) (A) (A) (A) (A)
                 (A) (A) (A) (A) (A) (A) (A) (A) (A) (A) (A) (A)
                 (A) (A) (A) (A) (A) (A) (A) (A) (A) (A) (A) (A)
                 (A) (A) (A) (A) (A) (A) (A) (A) (A) (A) (A) (A)
                 (A) (A) (A) (A) (A) (A) (A) (A) (A) (A) (A) (A)
                 (A) (A) (A) (A) (A) (A) (A) (A) (A) (A) (A) (A)
                 (A) (A) (A) (A) (A) (A) (A) (A) (A) (A) (A) (A)
                 (A) (A) (A) (A) (A) (A) (A) (A) (A) (A) (A) (A)
                 (A) (A) (A) (A) (A) (A) (A) (A) (A) (A) (A) (A)
                 (A) (A) (A) (A) (A) (A) (A) (A) (A) (A) (A) (A)
                 (A) (A) (A) (A) (A) (A) (A) (A) (A) (A) (A) (A)
                 (A) (A) (A) (A) (A) (A) (A) (A) (A) (A) (A) (A)
                 (A) (A) (A) (A) (A) (A) (A) (A) (A) (A) (A) (A)
                 (A) (A) (A) (A) (A) (A) (A) (A) (A) (A) (A) (A)
                 (A) (A) (A) (A) (A) (A) (A) (A) (A) (A) (A) (A)
                 (A) (A) (A) (A) (A) (A) (A) (A) (A) (A) (A) (A)
                 (A) (A) (A) (A) (A) (A) (A) (A) (A) (A) (A) (A)
                 (A) (A) (A) (A) (A) (A) (A) (A) (A) (A) (A) (A)
                 (A) (A) (A) (A) (A) (A) (A) (A) (A) (A) (A) (A)
                 (A) (A) (A) (A) (A) (A) (A) (A) (A) (A) (A) (A)
                 (A) (A) (A) (A) (A) (A) (A) (A) (A) (A) (A) (A)
                 (A) (A) (A) (A) (A) (A) (A) (A) (A) (A) (A) (A)
                 (A) (A) (A) (A) (A) (A) (A) (A) (A) (A) (A) (A)
                 (A) (A) (A) (A) (A) (A) (A) (A) (A) (A) (A) (A)
                 (A) (A) (A) (A) (A) (A) (A) (A) (A) (A) (A) (A)
                 (A) (A) (A) (A) (A) (A) (A) (A) (A) (A) (A) (A)
                 (A) (A) (A) (A) (A) (A) (A) (A) (A) (A) (A) (A)
                 (A) (A) (A) (A) (A) (A) (A) (A) (A) (A) (A) (A)
                 (A) (A) (A) (A) (A) (A) (A) (A) (A) (A) (A) (A)
                 (A) (A) (A) (A) (A) (A) (A) (A) (A) (A) (A) (A)
                 (A) (A) (A)
 The electronic state of the initial guess is 1-A.
 Leave Link  401 at Sun Jan  1 15:49:18 2012, MaxMem= 1073741824 cpu:      67.1
 (Enter /apps/gaussian/g09/g09/l502.exe)
 Closed shell SCF:
 Requested convergence on RMS density matrix=1.00D-08 within 128 cycles.
 Requested convergence on MAX density matrix=1.00D-06.
 Requested convergence on             energy=1.00D-06.
 No special actions if energy rises.
 Using DIIS extrapolation, IDIIS=  1040.
 Integral symmetry usage will be decided dynamically.
       877318 words used for storage of precomputed grid.
 IEnd=     3721604 IEndB=     3721604 NGot=  1073741824 MDV=  1070974853
 LenX=  1070974853 LenY=  1070036861
 Fock matrices will be formed incrementally for  20 cycles.

 Cycle   1  Pass 1  IDiag  1:
 FoFCou: FMM=T IPFlag=           0 FMFlag=      100000 FMFlg1=        2001
         NFxFlg=           0 DoJE=F BraDBF=F KetDBF=F FulRan=T
         Omega=  0.000000  0.000000  1.000000  0.000000  0.000000 ICntrl=       0 IOpCl=  0
         NMat0=    1 NMatS0=    1 NMatT0=    0 NMatD0=    1 NMtDS0=    0 NMtDT0=    0
         I1Cent=           0 NGrid=           0.
 Symmetry not used in FoFCou.
 FMM levels:  10  Number of levels for PrismC:   9
 E= -2288.28882220976    
 DIIS: error= 7.63D-08 at cycle   1 NSaved=   1.
 NSaved= 1 IEnMin= 1 EnMin= -2288.28882220976     IErMin= 1 ErrMin= 7.63D-08
 ErrMax= 7.63D-08 EMaxC= 1.00D-01 BMatC= 1.28D-12 BMatP= 1.28D-12
 IDIUse=1 WtCom= 1.00D+00 WtEn= 0.00D+00
 Coeff-Com:  0.100D+01
 Coeff:      0.100D+01
 Gap=     0.070 Goal=   None    Shift=    0.000
 RMSDP=4.03D-09 MaxDP=4.48D-07              OVMax= 1.15D-06

 SCF Done:  E(RB3LYP) =  -2288.28882221     A.U. after    1 cycles
             Convg  =    0.4028D-08             -V/T =  2.0085
 KE= 2.269105080230D+03 PE=-1.685113770632D+04 EE= 6.533811492249D+03
 Leave Link  502 at Sun Jan  1 15:50:14 2012, MaxMem= 1073741824 cpu:     450.8
 (Enter /apps/gaussian/g09/g09/l801.exe)
 ExpMin= 7.78D-02 ExpMax= 1.61D+04 ExpMxC= 2.43D+03 IAcc=3 IRadAn=         5 AccDes= 0.00D+00
 HarFok:  IExCor=  205 AccDes= 0.00D+00 IRadAn=         5 IDoV=-2
 ScaDFX=  1.000000  1.000000  1.000000  1.000000
 Largest valence mixing into a core orbital is  1.43D-04
 Largest core mixing into a valence orbital is  4.84D-05
 Range of M.O.s used for correlation:    55   968
 NBasis=   968 NAE=   173 NBE=   173 NFC=    54 NFV=     0
 NROrb=    914 NOA=   119 NOB=   119 NVA=   795 NVB=   795

 **** Warning!!: The largest alpha MO coefficient is  0.16157528D+02


 **** Warning!!: The smallest alpha delta epsilon is  0.69800546D-01

 Leave Link  801 at Sun Jan  1 15:50:18 2012, MaxMem= 1073741824 cpu:      22.8
 (Enter /apps/gaussian/g09/g09/l914.exe)
 RHF ground state
 MDV=  1073741824 DFT=T DoStab=F Mixed=T DoRPA=T DoScal=F NonHer=T
 Would need an additional342391500000 words for in-memory AO integral storage.
 Making orbital integer symmetry assigments:
 Orbital symmetries:
       Occupied  (A) (A) (A) (A) (A) (A) (A) (A) (A) (A) (A) (A)
                 (A) (A) (A) (A) (A) (A) (A) (A) (A) (A) (A) (A)
                 (A) (A) (A) (A) (A) (A) (A) (A) (A) (A) (A) (A)
                 (A) (A) (A) (A) (A) (A) (A) (A) (A) (A) (A) (A)
                 (A) (A) (A) (A) (A) (A) (A) (A) (A) (A) (A) (A)
                 (A) (A) (A) (A) (A) (A) (A) (A) (A) (A) (A) (A)
                 (A) (A) (A) (A) (A) (A) (A) (A) (A) (A) (A) (A)
                 (A) (A) (A) (A) (A) (A) (A) (A) (A) (A) (A) (A)
                 (A) (A) (A) (A) (A) (A) (A) (A) (A) (A) (A) (A)
                 (A) (A) (A) (A) (A) (A) (A) (A) (A) (A) (A) (A)
                 (A) (A) (A) (A) (A) (A) (A) (A) (A) (A) (A) (A)
                 (A) (A) (A) (A) (A) (A) (A) (A) (A) (A) (A) (A)
                 (A) (A) (A) (A) (A) (A) (A) (A) (A) (A) (A) (A)
                 (A) (A) (A) (A) (A) (A) (A) (A) (A) (A) (A) (A)
                 (A) (A) (A) (A) (A)
       Virtual   (A) (A) (A) (A) (A) (A) (A) (A) (A) (A) (A) (A)
                 (A) (A) (A) (A) (A) (A) (A) (A) (A) (A) (A) (A)
                 (A) (A) (A) (A) (A) (A) (A) (A) (A) (A) (A) (A)
                 (A) (A) (A) (A) (A) (A) (A) (A) (A) (A) (A) (A)
                 (A) (A) (A) (A) (A) (A) (A) (A) (A) (A) (A) (A)
                 (A) (A) (A) (A) (A) (A) (A) (A) (A) (A) (A) (A)
                 (A) (A) (A) (A) (A) (A) (A) (A) (A) (A) (A) (A)
                 (A) (A) (A) (A) (A) (A) (A) (A) (A) (A) (A) (A)
                 (A) (A) (A) (A) (A) (A) (A) (A) (A) (A) (A) (A)
                 (A) (A) (A) (A) (A) (A) (A) (A) (A) (A) (A) (A)
                 (A) (A) (A) (A) (A) (A) (A) (A) (A) (A) (A) (A)
                 (A) (A) (A) (A) (A) (A) (A) (A) (A) (A) (A) (A)
                 (A) (A) (A) (A) (A) (A) (A) (A) (A) (A) (A) (A)
                 (A) (A) (A) (A) (A) (A) (A) (A) (A) (A) (A) (A)
                 (A) (A) (A) (A) (A) (A) (A) (A) (A) (A) (A) (A)
                 (A) (A) (A) (A) (A) (A) (A) (A) (A) (A) (A) (A)
                 (A) (A) (A) (A) (A) (A) (A) (A) (A) (A) (A) (A)
                 (A) (A) (A) (A) (A) (A) (A) (A) (A) (A) (A) (A)
                 (A) (A) (A) (A) (A) (A) (A) (A) (A) (A) (A) (A)
                 (A) (A) (A) (A) (A) (A) (A) (A) (A) (A) (A) (A)
                 (A) (A) (A) (A) (A) (A) (A) (A) (A) (A) (A) (A)
                 (A) (A) (A) (A) (A) (A) (A) (A) (A) (A) (A) (A)
                 (A) (A) (A) (A) (A) (A) (A) (A) (A) (A) (A) (A)
                 (A) (A) (A) (A) (A) (A) (A) (A) (A) (A) (A) (A)
                 (A) (A) (A) (A) (A) (A) (A) (A) (A) (A) (A) (A)
                 (A) (A) (A) (A) (A) (A) (A) (A) (A) (A) (A) (A)
                 (A) (A) (A) (A) (A) (A) (A) (A) (A) (A) (A) (A)
                 (A) (A) (A) (A) (A) (A) (A) (A) (A) (A) (A) (A)
                 (A) (A) (A) (A) (A) (A) (A) (A) (A) (A) (A) (A)
                 (A) (A) (A) (A) (A) (A) (A) (A) (A) (A) (A) (A)
                 (A) (A) (A) (A) (A) (A) (A) (A) (A) (A) (A) (A)
                 (A) (A) (A) (A) (A) (A) (A) (A) (A) (A) (A) (A)
                 (A) (A) (A) (A) (A) (A) (A) (A) (A) (A) (A) (A)
                 (A) (A) (A) (A) (A) (A) (A) (A) (A) (A) (A) (A)
                 (A) (A) (A) (A) (A) (A) (A) (A) (A) (A) (A) (A)
                 (A) (A) (A) (A) (A) (A) (A) (A) (A) (A) (A) (A)
                 (A) (A) (A) (A) (A) (A) (A) (A) (A) (A) (A) (A)
                 (A) (A) (A) (A) (A) (A) (A) (A) (A) (A) (A) (A)
                 (A) (A) (A) (A) (A) (A) (A) (A) (A) (A) (A) (A)
                 (A) (A) (A) (A) (A) (A) (A) (A) (A) (A) (A) (A)
                 (A) (A) (A) (A) (A) (A) (A) (A) (A) (A) (A) (A)
                 (A) (A) (A) (A) (A) (A) (A) (A) (A) (A) (A) (A)
                 (A) (A) (A) (A) (A) (A) (A) (A) (A) (A) (A) (A)
                 (A) (A) (A) (A) (A) (A) (A) (A) (A) (A) (A) (A)
                 (A) (A) (A) (A) (A) (A) (A) (A) (A) (A) (A) (A)
                 (A) (A) (A) (A) (A) (A) (A) (A) (A) (A) (A) (A)
                 (A) (A) (A) (A) (A) (A) (A) (A) (A) (A) (A) (A)
                 (A) (A) (A) (A) (A) (A) (A) (A) (A) (A) (A) (A)
                 (A) (A) (A) (A) (A) (A) (A) (A) (A) (A) (A) (A)
                 (A) (A) (A) (A) (A) (A) (A) (A) (A) (A) (A) (A)
                 (A) (A) (A) (A) (A) (A) (A) (A) (A) (A) (A) (A)
                 (A) (A) (A) (A) (A) (A) (A) (A) (A) (A) (A) (A)
                 (A) (A) (A) (A) (A) (A) (A) (A) (A) (A) (A) (A)
                 (A) (A) (A) (A) (A) (A) (A) (A) (A) (A) (A) (A)
                 (A) (A) (A) (A) (A) (A) (A) (A) (A) (A) (A) (A)
                 (A) (A) (A) (A) (A) (A) (A) (A) (A) (A) (A) (A)
                 (A) (A) (A) (A) (A) (A) (A) (A) (A) (A) (A) (A)
                 (A) (A) (A) (A) (A) (A) (A) (A) (A) (A) (A) (A)
                 (A) (A) (A) (A) (A) (A) (A) (A) (A) (A) (A) (A)
                 (A) (A) (A) (A) (A) (A) (A) (A) (A) (A) (A) (A)
                 (A) (A) (A) (A) (A) (A) (A) (A) (A) (A) (A) (A)
                 (A) (A) (A) (A) (A) (A) (A) (A) (A) (A) (A) (A)
                 (A) (A) (A) (A) (A) (A) (A) (A) (A) (A) (A) (A)
                 (A) (A) (A) (A) (A) (A) (A) (A) (A) (A) (A) (A)
                 (A) (A) (A) (A) (A) (A) (A) (A) (A) (A) (A) (A)
                 (A) (A) (A) (A) (A) (A) (A) (A) (A) (A) (A) (A)
                 (A) (A) (A)
   200 initial guesses have been made.
 Convergence on wavefunction:    0.001000000000000
 Davidson Disk Diagonalization:  ConvIn= 1.00D-03 SkipCon=T Conv= 1.00D-03.
 Max sub-space:   800 roots to seek:   200 dimension of matrix: 189210
 Iteration     1 Dimension   200 NMult   200
 Cannot handle 2e integral symmetry, ISym2E=1.
 CISAX:  IP=  8 NPass=   4 NMax=    50.
 CISAX will form    50 AO SS matrices at one time.
 NMat=    50 NSing=    50.
 FoFCou: FMM=T IPFlag=           0 FMFlag=      100000 FMFlg1=        2001
         NFxFlg=           0 DoJE=F BraDBF=F KetDBF=F FulRan=T
         Omega=  0.000000  0.000000  1.000000  0.000000  0.000000 ICntrl=       0 IOpCl=  0
         NMat0=   50 NMatS0=   50 NMatT0=    0 NMatD0=   50 NMtDS0=    0 NMtDT0=    0
         I1Cent=           0 NGrid=           0.
 Symmetry not used in FoFCou.
 FMM levels:  10  Number of levels for PrismC:   9
 NMat=    50 NSing=    50.
 NMat=    50 NSing=    50.
 NMat=    50 NSing=    50.
 Cannot handle 2e integral symmetry, ISym2E=1.
 CISAX:  IP=  8 NPass=   4 NMax=    50.
 CISAX will form    50 AO SS matrices at one time.
 NMat=    50 NSing=    50.
 NMat=    50 NSing=    50.
 NMat=    50 NSing=    50.
 NMat=    50 NSing=    50.
 New state      3 was old state      4
 New state      4 was old state      5
 New state      5 was old state      3
 New state      6 was old state      8
 New state      7 was old state      9
 New state      8 was old state     10
 New state      9 was old state      6
 New state     10 was old state     11
 New state     11 was old state     12
 New state     12 was old state     13
 New state     13 was old state     14
 New state     14 was old state     19
 New state     15 was old state     17
 New state     16 was old state     20
 New state     17 was old state      7
 New state     19 was old state     26
 New state     20 was old state     16
 New state     22 was old state     15
 New state     23 was old state     22
 New state     24 was old state     23
 New state     25 was old state     27
 New state     26 was old state     30
 New state     27 was old state     32
 New state     28 was old state     31
 New state     29 was old state     28
 New state     30 was old state     36
 New state     31 was old state     33
 New state     32 was old state     24
 New state     33 was old state     34
 New state     34 was old state     35
 New state     35 was old state     38
 New state     36 was old state     41
 New state     37 was old state     49
 New state     38 was old state     42
 New state     39 was old state     43
 New state     40 was old state     45
 New state     41 was old state     48
 New state     42 was old state     46
 New state     43 was old state     39
 New state     44 was old state     40
 New state     45 was old state     44
 No map to state     46
 No map to state     48
 No map to state     49
 No map to state     50
 Excitation Energies [eV] at current iteration:
 Root      1 :     2.000600497995644
 Root      2 :     2.731633396936479
 Root      3 :     3.134348576591893
 Root      4 :     3.188001063237685
 Root      5 :     3.446447336765555
 Root      6 :     3.512756137179339
 Root      7 :     3.558286282868039
 Root      8 :     3.731890796274903
 Root      9 :     3.799753874678987
 Root     10 :     4.176714986231838
 Root     11 :     4.189918851258580
 Root     12 :     4.253893745735268
 Root     13 :     4.287157529123227
 Root     14 :     4.395961857045094
 Root     15 :     4.478782706142995
 Root     16 :     4.507860382744695
 Root     17 :     4.527525534470334
 Root     18 :     4.555875166368794
 Root     19 :     4.704834581299076
 Root     20 :     4.745839525407590
 Root     21 :     4.831999674907779
 Root     22 :     4.834931373628919
 Root     23 :     4.879829608115885
 Root     24 :     4.989216974460620
 Root     25 :     5.086238659605720
 Root     26 :     5.116483388874664
 Root     27 :     5.327249980504156
 Root     28 :     5.386171079732102
 Root     29 :     5.395126788201284
 Root     30 :     5.403380998492871
 Root     31 :     5.412210955667341
 Root     32 :     5.421219855982905
 Root     33 :     5.422263364793010
 Root     34 :     5.464907484745124
 Root     35 :     5.478819223159608
 Root     36 :     5.514658671038412
 Root     37 :     5.517103376865027
 Root     38 :     5.563814566817688
 Root     39 :     5.610775253786502
 Root     40 :     5.614447266080396
 Root     41 :     5.638428979330215
 Root     42 :     5.703440941199247
 Root     43 :     5.718138069428253
 Root     44 :     5.746469827704859
 Root     45 :     5.840651990644224
 Root     46 :     5.854166229589350
 Root     47 :     5.858650150154149
 Root     48 :     5.858702708087320
 Root     49 :     5.870705414104150
 Root     50 :     5.877443254958850
 Iteration     2 Dimension   300 NMult   300
 Cannot handle 2e integral symmetry, ISym2E=1.
 CISAX:  IP=  8 NPass=   2 NMax=    50.
 CISAX will form    50 AO SS matrices at one time.
 NMat=    50 NSing=    50.
 NMat=    50 NSing=    50.
 Cannot handle 2e integral symmetry, ISym2E=1.
 CISAX:  IP=  8 NPass=   2 NMax=    50.
 CISAX will form    50 AO SS matrices at one time.
 NMat=    50 NSing=    50.
 NMat=    50 NSing=    50.
 Root      1 not converged, maximum delta is    0.052830915166753
 Root      2 not converged, maximum delta is    0.134561852346277
 Root      3 not converged, maximum delta is    0.093058739955219
 Root      4 not converged, maximum delta is    0.032441169659641
 Root      5 not converged, maximum delta is    0.100690539531813
 Root      6 not converged, maximum delta is    0.008559025916470
 Root      7 not converged, maximum delta is    0.006236474122085
 New state      8 was old state      9
 Root      8 not converged, maximum delta is    0.190880714969622
 New state      9 was old state      8
 Root      9 not converged, maximum delta is    0.059027660581079
 Root     10 not converged, maximum delta is    0.113109768854467
 New state     11 was old state     17
 Root     11 not converged, maximum delta is    0.063676125896242
 New state     12 was old state     11
 Root     12 not converged, maximum delta is    0.040142298524723
 New state     13 was old state     12
 Root     13 not converged, maximum delta is    0.046313994668765
 New state     14 was old state     13
 Root     14 not converged, maximum delta is    0.020438629574786
 New state     15 was old state     14
 Root     15 not converged, maximum delta is    0.038541932023441
 New state     16 was old state     15
 Root     16 not converged, maximum delta is    0.100146668274091
 New state     17 was old state     16
 Root     17 not converged, maximum delta is    0.041436104170648
 Root     18 not converged, maximum delta is    0.100187730743048
 New state     19 was old state     20
 Root     19 not converged, maximum delta is    0.330206957978903
 New state     20 was old state     22
 Root     20 not converged, maximum delta is    0.194788372122591
 New state     21 was old state     19
 Root     21 not converged, maximum delta is    0.330974033409770
 New state     22 was old state     21
 Root     22 not converged, maximum delta is    0.467475248397320
 Root     23 not converged, maximum delta is    0.087037366051931
 Root     24 not converged, maximum delta is    0.125807316858249
 Root     25 not converged, maximum delta is    0.345686400482132
 Root     26 not converged, maximum delta is    0.017126203175642
 New state     27 was old state     32
 Root     27 not converged, maximum delta is    0.191546067291095
 New state     28 was old state     29
 Root     28 not converged, maximum delta is    0.161781629773902
 New state     29 was old state     30
 Root     29 not converged, maximum delta is    0.099148244533385
 New state     30 was old state     27
 Root     30 not converged, maximum delta is    0.043752185299160
 New state     31 was old state     28
 Root     31 not converged, maximum delta is    0.015570414060587
 New state     32 was old state     35
 Root     32 not converged, maximum delta is    0.302052493539721
 New state     33 was old state     31
 Root     33 not converged, maximum delta is    0.317590702051986
 New state     34 was old state     33
 Root     34 not converged, maximum delta is    0.070538021871001
 New state     35 was old state     34
 Root     35 not converged, maximum delta is    0.046759382364925
 New state     36 was old state     37
 Root     36 not converged, maximum delta is    0.052546469855391
 New state     37 was old state     36
 Root     37 not converged, maximum delta is    0.024539366218488
 Root     38 not converged, maximum delta is    0.049031682362333
 Root     39 not converged, maximum delta is    0.045949203731128
 Root     40 not converged, maximum delta is    0.085187972892734
 Root     41 not converged, maximum delta is    0.061550762798071
 Root     42 not converged, maximum delta is    0.098647536975415
 Root     43 not converged, maximum delta is    0.018585770608527
 Root     44 not converged, maximum delta is    0.034856115152939
 New state     45 was old state     49
 Root     45 not converged, maximum delta is    0.471186959593503
 New state     46 was old state     45
 Root     46 not converged, maximum delta is    0.056766941927045
 New state     47 was old state     46
 Root     47 not converged, maximum delta is    0.099651373756634
 Root     48 not converged, maximum delta is    0.201557208718614
 New state     49 was old state     47
 Root     49 not converged, maximum delta is    0.259984950508221
 Root     50 not converged, maximum delta is    0.586881434799922
 Excitation Energies [eV] at current iteration:
 Root      1 :     1.692295004701563   Change is   -0.308305493294081
 Root      2 :     2.668748338594747   Change is   -0.062885058341732
 Root      3 :     3.095843686247194   Change is   -0.038504890344699
 Root      4 :     3.145236619232491   Change is   -0.042764444005194
 Root      5 :     3.185788061211820   Change is   -0.260659275553735
 Root      6 :     3.502082798002503   Change is   -0.010673339176835
 Root      7 :     3.548090085798398   Change is   -0.010196197069642
 Root      8 :     3.563064331331697   Change is   -0.236689543347290
 Root      9 :     3.664020412208250   Change is   -0.067870384066654
 Root     10 :     4.076151262416970   Change is   -0.100563723814867
 Root     11 :     4.141450650048474   Change is   -0.386074884421860
 Root     12 :     4.159199268324801   Change is   -0.030719582933779
 Root     13 :     4.243692543131749   Change is   -0.010201202603520
 Root     14 :     4.277239022604896   Change is   -0.009918506518330
 Root     15 :     4.381021762171782   Change is   -0.014940094873312
 Root     16 :     4.424080825096903   Change is   -0.054701881046091
 Root     17 :     4.492682273414126   Change is   -0.015178109330569
 Root     18 :     4.497029065098692   Change is   -0.058846101270101
 Root     19 :     4.497982701335108   Change is   -0.247856824072483
 Root     20 :     4.546111686857948   Change is   -0.288819686770972
 Root     21 :     4.677495084360250   Change is   -0.027339496938825
 Root     22 :     4.780495063711967   Change is   -0.051504611195812
 Root     23 :     4.806223310633097   Change is   -0.073606297482788
 Root     24 :     4.815979918910075   Change is   -0.173237055550545
 Root     25 :     4.870429166221412   Change is   -0.215809493384307
 Root     26 :     5.079342513968606   Change is   -0.037140874906058
 Root     27 :     5.123509403833723   Change is   -0.297710452149182
 Root     28 :     5.190943358690548   Change is   -0.204183429510737
 Root     29 :     5.270065972142239   Change is   -0.133315026350632
 Root     30 :     5.305282092042902   Change is   -0.021967888461255
 Root     31 :     5.379782902488002   Change is   -0.006388177244100
 Root     32 :     5.399647323513080   Change is   -0.079171899646528
 Root     33 :     5.407688333901823   Change is   -0.004522621765518
 Root     34 :     5.416417059372587   Change is   -0.005846305420423
 Root     35 :     5.448278367218189   Change is   -0.016629117526935
 Root     36 :     5.490353930402688   Change is   -0.026749446462338
 Root     37 :     5.498368198790127   Change is   -0.016290472248285
 Root     38 :     5.517142622823083   Change is   -0.046671943994605
 Root     39 :     5.570732852370095   Change is   -0.040042401416408
 Root     40 :     5.577287328295073   Change is   -0.037159937785324
 Root     41 :     5.588281582674085   Change is   -0.050147396656130
 Root     42 :     5.630076884338318   Change is   -0.073364056860929
 Root     43 :     5.710222508042897   Change is   -0.007915561385356
 Root     44 :     5.736990917412432   Change is   -0.009478910292427
 Root     45 :     5.816189043881944   Change is   -0.054516370222206
 Root     46 :     5.821004545025040   Change is   -0.019647445619185
 Root     47 :     5.845826187144985   Change is   -0.008340042444364
 Root     48 :     5.850649197605341   Change is   -0.008053510481979
 Root     49 :     5.852445027496868   Change is   -0.006205122657282
 Root     50 :     5.856979238001240   Change is   -0.020464016957610
 Iteration     3 Dimension   400 NMult   400
 Cannot handle 2e integral symmetry, ISym2E=1.
 CISAX:  IP=  8 NPass=   2 NMax=    50.
 CISAX will form    50 AO SS matrices at one time.
 NMat=    50 NSing=    50.
 NMat=    50 NSing=    50.
 Cannot handle 2e integral symmetry, ISym2E=1.
 CISAX:  IP=  8 NPass=   2 NMax=    50.
 CISAX will form    50 AO SS matrices at one time.
 NMat=    50 NSing=    50.
 NMat=    50 NSing=    50.
 Root      1 not converged, maximum delta is    0.004913040024253
 Root      2 not converged, maximum delta is    0.004630619536432
 Root      3 not converged, maximum delta is    0.003798551475152
 Root      4 not converged, maximum delta is    0.002230991122642
 Root      5 not converged, maximum delta is    0.004008335691225
 Root      6 has converged.
 Root      7 has converged.
 Root      8 not converged, maximum delta is    0.003695074974087
 Root      9 not converged, maximum delta is    0.002068949407526
 Root     10 not converged, maximum delta is    0.004651301680789
 Root     11 not converged, maximum delta is    0.006130422889030
 Root     12 not converged, maximum delta is    0.002523032317619
 Root     13 not converged, maximum delta is    0.001974476581375
 Root     14 has converged.
 Root     15 not converged, maximum delta is    0.003336211139218
 Root     16 not converged, maximum delta is    0.010956258620805
 New state     17 was old state     19
 Root     17 not converged, maximum delta is    0.039961113099981
 New state     18 was old state     17
 Root     18 not converged, maximum delta is    0.003303176884954
 New state     19 was old state     18
 Root     19 not converged, maximum delta is    0.032301746251038
 Root     20 not converged, maximum delta is    0.012400724120173
 Root     21 not converged, maximum delta is    0.003189356748236
 Root     22 not converged, maximum delta is    0.021982741041887
 Root     23 not converged, maximum delta is    0.003053836673705
 Root     24 not converged, maximum delta is    0.010796202659145
 Root     25 not converged, maximum delta is    0.020024528902903
 Root     26 not converged, maximum delta is    0.001337564095277
 Root     27 not converged, maximum delta is    0.008467067519646
 Root     28 not converged, maximum delta is    0.006433093320974
 Root     29 not converged, maximum delta is    0.011855163488862
 Root     30 not converged, maximum delta is    0.002683584462960
 Root     31 not converged, maximum delta is    0.001407451312946
 Root     32 not converged, maximum delta is    0.077405792692679
 Root     33 not converged, maximum delta is    0.074210044060563
 Root     34 not converged, maximum delta is    0.011330663321591
 Root     35 not converged, maximum delta is    0.003231854496619
 Root     36 not converged, maximum delta is    0.001981246334992
 Root     37 not converged, maximum delta is    0.002521354226055
 Root     38 not converged, maximum delta is    0.002222650517522
 Root     39 not converged, maximum delta is    0.001829032322921
 Root     40 not converged, maximum delta is    0.014882599571390
 Root     41 not converged, maximum delta is    0.006389660716054
 Root     42 not converged, maximum delta is    0.020226769596260
 Root     43 not converged, maximum delta is    0.010680512250147
 Root     44 not converged, maximum delta is    0.005929016208087
 No map to state     45
 New state     46 was old state     45
 Root     46 not converged, maximum delta is    0.051213240866457
 New state     47 was old state     46
 Root     47 not converged, maximum delta is    0.004951358669452
 New state     48 was old state     47
 Root     48 not converged, maximum delta is    0.026697905799033
 New state     49 was old state     48
 Root     49 not converged, maximum delta is    0.047923261978005
 New state     50 was old state     49
 Root     50 not converged, maximum delta is    0.003762130398755
 Excitation Energies [eV] at current iteration:
 Root      1 :     1.685267335613548   Change is   -0.007027669088016
 Root      2 :     2.666496045060931   Change is   -0.002252293533817
 Root      3 :     3.094372330719743   Change is   -0.001471355527451
 Root      4 :     3.143882555099151   Change is   -0.001354064133340
 Root      5 :     3.180498171188587   Change is   -0.005289890023233
 Root      6 :     3.501773315373978   Change is   -0.000309482628526
 Root      7 :     3.547772149590284   Change is   -0.000317936208113
 Root      8 :     3.556296603880071   Change is   -0.006767727451627
 Root      9 :     3.661757918361984   Change is   -0.002262493846265
 Root     10 :     4.073117295281674   Change is   -0.003033967135296
 Root     11 :     4.123142049479319   Change is   -0.018308600569155
 Root     12 :     4.158090175773708   Change is   -0.001109092551093
 Root     13 :     4.243422205367144   Change is   -0.000270337764604
 Root     14 :     4.277013592558218   Change is   -0.000225430046679
 Root     15 :     4.380532478239551   Change is   -0.000489283932231
 Root     16 :     4.420717707150950   Change is   -0.003363117945953
 Root     17 :     4.492008333278604   Change is   -0.005974368056503
 Root     18 :     4.492183630982543   Change is   -0.000498642431583
 Root     19 :     4.494928212273546   Change is   -0.002100852825146
 Root     20 :     4.538784927930955   Change is   -0.007326758926993
 Root     21 :     4.676649237174949   Change is   -0.000845847185301
 Root     22 :     4.776883916779457   Change is   -0.003611146932510
 Root     23 :     4.804484330324444   Change is   -0.001738980308653
 Root     24 :     4.808026334813130   Change is   -0.007953584096945
 Root     25 :     4.868018404751695   Change is   -0.002410761469717
 Root     26 :     5.078677741156476   Change is   -0.000664772812130
 Root     27 :     5.116157638055353   Change is   -0.007351765778370
 Root     28 :     5.185553739668994   Change is   -0.005389619021554
 Root     29 :     5.263841436436074   Change is   -0.006224535706165
 Root     30 :     5.304359193510098   Change is   -0.000922898532804
 Root     31 :     5.379627188401352   Change is   -0.000155714086650
 Root     32 :     5.396853999701821   Change is   -0.002793323811259
 Root     33 :     5.406692463581892   Change is   -0.000995870319932
 Root     34 :     5.416241674146729   Change is   -0.000175385225858
 Root     35 :     5.447200524487676   Change is   -0.001077842730514
 Root     36 :     5.489547881183170   Change is   -0.000806049219519
 Root     37 :     5.497558123463527   Change is   -0.000810075326600
 Root     38 :     5.515996499364205   Change is   -0.001146123458878
 Root     39 :     5.569731812285817   Change is   -0.001001040084278
 Root     40 :     5.573959206945988   Change is   -0.003328121349085
 Root     41 :     5.586729988298992   Change is   -0.001551594375093
 Root     42 :     5.624403101359653   Change is   -0.005673782978665
 Root     43 :     5.709950124235466   Change is   -0.000272383807431
 Root     44 :     5.736630631325928   Change is   -0.000360286086503
 Root     45 :     5.768362201762774
 Root     46 :     5.805886536274173   Change is   -0.010302507607772
 Root     47 :     5.820147196397024   Change is   -0.000857348628015
 Root     48 :     5.845476987198760   Change is   -0.000349199946226
 Root     49 :     5.850415008549734   Change is   -0.000234189055607
 Root     50 :     5.852257853314881   Change is   -0.000187174181987
 Iteration     4 Dimension   494 NMult   494
 Cannot handle 2e integral symmetry, ISym2E=1.
 CISAX:  IP=  8 NPass=   2 NMax=    47.
 CISAX will form    47 AO SS matrices at one time.
 NMat=    47 NSing=    47.
 NMat=    47 NSing=    47.
 Cannot handle 2e integral symmetry, ISym2E=1.
 CISAX:  IP=  8 NPass=   2 NMax=    47.
 CISAX will form    47 AO SS matrices at one time.
 NMat=    47 NSing=    47.
 NMat=    47 NSing=    47.
 Root      1 has converged.
 Root      2 has converged.
 Root      3 has converged.
 Root      4 has converged.
 Root      5 has converged.
 Root      6 has converged.
 Root      7 has converged.
 Root      8 has converged.
 Root      9 has converged.
 Root     10 has converged.
 Root     11 has converged.
 Root     12 has converged.
 Root     13 has converged.
 Root     14 has converged.
 Root     15 has converged.
 Root     16 has converged.
 Root     17 not converged, maximum delta is    0.002280193307072
 Root     18 not converged, maximum delta is    0.001751345109225
 Root     19 not converged, maximum delta is    0.001411013561192
 Root     20 has converged.
 Root     21 has converged.
 Root     22 has converged.
 Root     23 has converged.
 Root     24 has converged.
 Root     25 has converged.
 Root     26 has converged.
 Root     27 has converged.
 Root     28 has converged.
 Root     29 not converged, maximum delta is    0.001526579355107
 Root     30 has converged.
 Root     31 has converged.
 Root     32 not converged, maximum delta is    0.003369777894447
 Root     33 not converged, maximum delta is    0.003128657634976
 Root     34 has converged.
 Root     35 has converged.
 Root     36 has converged.
 Root     37 has converged.
 Root     38 has converged.
 Root     39 has converged.
 Root     40 not converged, maximum delta is    0.001287554718629
 Root     41 not converged, maximum delta is    0.001227537248207
 Root     42 not converged, maximum delta is    0.003067025702063
 Root     43 not converged, maximum delta is    0.005696867308903
 Root     44 not converged, maximum delta is    0.001133650046692
 Root     45 not converged, maximum delta is    0.010868045619980
 Root     46 not converged, maximum delta is    0.012751128763784
 Root     47 has converged.
 Root     48 not converged, maximum delta is    0.003302285332348
 Root     49 not converged, maximum delta is    0.007780765135094
 Root     50 not converged, maximum delta is    0.001050232364661
 Excitation Energies [eV] at current iteration:
 Root      1 :     1.685046579552004   Change is   -0.000220756061544
 Root      2 :     2.666444680247989   Change is   -0.000051364812941
 Root      3 :     3.094291427524160   Change is   -0.000080903195583
 Root      4 :     3.143842603748082   Change is   -0.000039951351068
 Root      5 :     3.180386979339095   Change is   -0.000111191849492
 Root      6 :     3.501765125615910   Change is   -0.000008189758068
 Root      7 :     3.547762268375044   Change is   -0.000009881215240
 Root      8 :     3.555933198714890   Change is   -0.000363405165180
 Root      9 :     3.661623393125787   Change is   -0.000134525236198
 Root     10 :     4.072958811712954   Change is   -0.000158483568720
 Root     11 :     4.122704398065324   Change is   -0.000437651413995
 Root     12 :     4.158034236389429   Change is   -0.000055939384279
 Root     13 :     4.243403953056291   Change is   -0.000018252310854
 Root     14 :     4.277005891879686   Change is   -0.000007700678532
 Root     15 :     4.380504157156230   Change is   -0.000028321083320
 Root     16 :     4.420561063746728   Change is   -0.000156643404221
 Root     17 :     4.491659197321028   Change is   -0.000349135957576
 Root     18 :     4.492157246091549   Change is   -0.000026384890995
 Root     19 :     4.494863492684936   Change is   -0.000064719588610
 Root     20 :     4.538509206917817   Change is   -0.000275721013138
 Root     21 :     4.676597524008361   Change is   -0.000051713166588
 Root     22 :     4.776771371872533   Change is   -0.000112544906924
 Root     23 :     4.804307713260209   Change is   -0.000176617064236
 Root     24 :     4.807661726985804   Change is   -0.000364607827326
 Root     25 :     4.867942457659491   Change is   -0.000075947092205
 Root     26 :     5.078637482106862   Change is   -0.000040259049614
 Root     27 :     5.115787471063183   Change is   -0.000370166992169
 Root     28 :     5.185251515358590   Change is   -0.000302224310405
 Root     29 :     5.263216786168146   Change is   -0.000624650267929
 Root     30 :     5.304289778148395   Change is   -0.000069415361703
 Root     31 :     5.379615712186220   Change is   -0.000011476215132
 Root     32 :     5.396672312830214   Change is   -0.000181686871607
 Root     33 :     5.406658203796234   Change is   -0.000034259785657
 Root     34 :     5.416230689590686   Change is   -0.000010984556043
 Root     35 :     5.447105653491190   Change is   -0.000094870996486
 Root     36 :     5.489483414337887   Change is   -0.000064466845282
 Root     37 :     5.497493748792912   Change is   -0.000064374670616
 Root     38 :     5.515917416628064   Change is   -0.000079082736140
 Root     39 :     5.569663134772919   Change is   -0.000068677512898
 Root     40 :     5.573678811391301   Change is   -0.000280395554687
 Root     41 :     5.586615276073151   Change is   -0.000114712225841
 Root     42 :     5.623768783785057   Change is   -0.000634317574596
 Root     43 :     5.709915123623166   Change is   -0.000035000612301
 Root     44 :     5.736584195949942   Change is   -0.000046435375986
 Root     45 :     5.751589706456264   Change is   -0.016772495306510
 Root     46 :     5.805140148298897   Change is   -0.000746387975275
 Root     47 :     5.820098453490007   Change is   -0.000048742907018
 Root     48 :     5.845440637830532   Change is   -0.000036349368227
 Root     49 :     5.850293660268735   Change is   -0.000121348281000
 Root     50 :     5.852242575386724   Change is   -0.000015277928157
 Iteration     5 Dimension   526 NMult   526
 Cannot handle 2e integral symmetry, ISym2E=1.
 CISAX:  IP=  8 NPass=   1 NMax=    32.
 CISAX will form    32 AO SS matrices at one time.
 NMat=    32 NSing=    32.
 Cannot handle 2e integral symmetry, ISym2E=1.
 CISAX:  IP=  8 NPass=   1 NMax=    32.
 CISAX will form    32 AO SS matrices at one time.
 NMat=    32 NSing=    32.
 DiagDN has N=   526 LTot=  1610 but NE2=   262 cannot use DSYEVD.
 DiagDN has N=   526 LTot=  1610 but NE2=   262 cannot use DSYEVD.
 Root      1 has converged.
 Root      2 has converged.
 Root      3 has converged.
 Root      4 has converged.
 Root      5 has converged.
 Root      6 has converged.
 Root      7 has converged.
 Root      8 has converged.
 Root      9 has converged.
 Root     10 has converged.
 Root     11 has converged.
 Root     12 has converged.
 Root     13 has converged.
 Root     14 has converged.
 Root     15 has converged.
 Root     16 has converged.
 Root     17 has converged.
 Root     18 has converged.
 Root     19 has converged.
 Root     20 has converged.
 Root     21 has converged.
 Root     22 has converged.
 Root     23 has converged.
 Root     24 has converged.
 Root     25 has converged.
 Root     26 has converged.
 Root     27 has converged.
 Root     28 has converged.
 Root     29 has converged.
 Root     30 has converged.
 Root     31 has converged.
 Root     32 has converged.
 Root     33 has converged.
 Root     34 has converged.
 Root     35 has converged.
 Root     36 has converged.
 Root     37 has converged.
 Root     38 has converged.
 Root     39 has converged.
 Root     40 has converged.
 Root     41 has converged.
 Root     42 has converged.
 Root     43 has converged.
 Root     44 has converged.
 Root     45 has converged.
 Root     46 has converged.
 Root     47 has converged.
 Root     48 has converged.
 Root     49 has converged.
 Root     50 has converged.
 Excitation Energies [eV] at current iteration:
 Root      1 :     1.685046311464823   Change is   -0.000000268087180
 Root      2 :     2.666444522993330   Change is   -0.000000157254659
 Root      3 :     3.094291149946509   Change is   -0.000000277577652
 Root      4 :     3.143841962439945   Change is   -0.000000641308138
 Root      5 :     3.180386418243166   Change is   -0.000000561095929
 Root      6 :     3.501764684220805   Change is   -0.000000441395106
 Root      7 :     3.547762038831030   Change is   -0.000000229544014
 Root      8 :     3.555931403157788   Change is   -0.000001795557102
 Root      9 :     3.661620552417868   Change is   -0.000002840707918
 Root     10 :     4.072958240746237   Change is   -0.000000570966716
 Root     11 :     4.122694587835613   Change is   -0.000009810229711
 Root     12 :     4.158033676983901   Change is   -0.000000559405528
 Root     13 :     4.243403865990202   Change is   -0.000000087066089
 Root     14 :     4.277005024276495   Change is   -0.000000867603191
 Root     15 :     4.380503775817193   Change is   -0.000000381339038
 Root     16 :     4.420560460627383   Change is   -0.000000603119345
 Root     17 :     4.491639046801517   Change is   -0.000020150519512
 Root     18 :     4.492155918127839   Change is   -0.000001327963710
 Root     19 :     4.494860030061202   Change is   -0.000003462623733
 Root     20 :     4.538508589372868   Change is   -0.000000617544948
 Root     21 :     4.676597052143666   Change is   -0.000000471864695
 Root     22 :     4.776770223801201   Change is   -0.000001148071333
 Root     23 :     4.804304112406277   Change is   -0.000003600853931
 Root     24 :     4.807660272293929   Change is   -0.000001454691874
 Root     25 :     4.867940816074494   Change is   -0.000001641584996
 Root     26 :     5.078636580962693   Change is   -0.000000901144169
 Root     27 :     5.115777256905047   Change is   -0.000010214158136
 Root     28 :     5.185249254115110   Change is   -0.000002261243480
 Root     29 :     5.263183563295602   Change is   -0.000033222872544
 Root     30 :     5.304288768993515   Change is   -0.000001009154881
 Root     31 :     5.379615637878021   Change is   -0.000000074308199
 Root     32 :     5.396659066646873   Change is   -0.000013246183342
 Root     33 :     5.406655711774402   Change is   -0.000002492021832
 Root     34 :     5.416230417439874   Change is   -0.000000272150812
 Root     35 :     5.447103302212842   Change is   -0.000002351278348
 Root     36 :     5.489483275028404   Change is   -0.000000139309483
 Root     37 :     5.497492341329083   Change is   -0.000001407463828
 Root     38 :     5.515916659402029   Change is   -0.000000757226036
 Root     39 :     5.569662616228835   Change is   -0.000000518544084
 Root     40 :     5.573663325808361   Change is   -0.000015485582939
 Root     41 :     5.586605260538642   Change is   -0.000010015534509
 Root     42 :     5.623731317155317   Change is   -0.000037466629740
 Root     43 :     5.709912866804499   Change is   -0.000002256818666
 Root     44 :     5.736581336222391   Change is   -0.000002859727551
 Root     45 :     5.750964599228877   Change is   -0.000625107227387
 Root     46 :     5.805097597089592   Change is   -0.000042551209305
 Root     47 :     5.820095255299905   Change is   -0.000003198190102
 Root     48 :     5.845439045409254   Change is   -0.000001592421279
 Root     49 :     5.850288687657548   Change is   -0.000004972611187
 Root     50 :     5.852241625336281   Change is   -0.000000950050444
 Convergence achieved on expansion vectors.
 ***********************************************************************
 Excited states from <AA,BB:AA,BB> singles matrix:
 ***********************************************************************
 
 1PDM for each excited state written to RWF  633
 Ground to excited state transition electric dipole moments (Au):
       state          X           Y           Z        Dip. S.      Osc.
         1        -2.0651     -0.0107      0.0360      4.2661      0.1761
         2         0.0000      0.0000      0.0000      0.0000      0.0000
         3         0.9748      0.0186     -0.0435      0.9525      0.0722
         4        -0.0077     -0.7636     -0.0080      0.5832      0.0449
         5         0.0000      0.0000      0.0000      0.0000      0.0000
         6         0.0362      0.0569      0.0584      0.0080      0.0007
         7         0.0003      0.0000      0.0000      0.0000      0.0000
         8         1.8303      0.0331     -0.0758      3.3568      0.2924
         9         0.0000      0.0000      0.0000      0.0000      0.0000
        10        -0.1043      0.1586      0.0960      0.0453      0.0045
        11         0.0217      4.6030      0.0426     21.1902      2.1403
        12         0.0000     -0.0001      0.0000      0.0000      0.0000
        13         0.0327     -0.1501     -0.0638      0.0277      0.0029
        14         0.0000     -0.0001      0.0000      0.0000      0.0000
        15         0.0000     -0.0001      0.0000      0.0000      0.0000
        16        -0.4744      0.0352     -0.0467      0.2285      0.0247
        17         0.0001     -0.0002     -0.0001      0.0000      0.0000
        18        -0.0286      0.0611      0.0319      0.0056      0.0006
        19         0.0000      0.0000      0.0000      0.0000      0.0000
        20         0.8470      0.0068     -0.0157      0.7177      0.0798
        21         0.0000      0.0000      0.0000      0.0000      0.0000
        22         0.0000      0.0000      0.0000      0.0000      0.0000
        23         0.0000      0.0000      0.0000      0.0000      0.0000
        24        -0.5043     -0.0176      0.0206      0.2551      0.0300
        25         0.0000      0.0000      0.0000      0.0000      0.0000
        26        -0.0030     -0.1787     -0.0012      0.0320      0.0040
        27         0.0000      0.0000      0.0000      0.0000      0.0000
        28        -1.6520     -0.0691      0.0919      2.7424      0.3484
        29         0.0000      0.0000      0.0000      0.0000      0.0000
        30        -0.0065     -0.0021      0.1118      0.0125      0.0016
        31         0.0000      0.0000      0.0000      0.0000      0.0000
        32        -0.0085     -1.1914     -0.0152      1.4198      0.1877
        33         0.0055     -0.6763      0.0013      0.4574      0.0606
        34         0.0109      0.1479      0.0401      0.0236      0.0031
        35         0.0000      0.0000      0.0000      0.0000      0.0000
        36         0.0000      0.0000      0.0000      0.0000      0.0000
        37         0.0179     -0.0351      0.0912      0.0099      0.0013
        38         0.0280     -0.0818     -0.0849      0.0147      0.0020
        39         0.0000      0.0000      0.0000      0.0000      0.0000
        40        -0.0012      0.0754      0.0007      0.0057      0.0008
        41         0.0094     -0.0262     -0.0177      0.0011      0.0001
        42         0.0000      0.0000      0.0000      0.0000      0.0000
        43        -0.1100     -0.0013     -0.1103      0.0243      0.0034
        44         0.0002      0.0000      0.0001      0.0000      0.0000
        45        -1.6579     -0.0321      0.0577      2.7530      0.3879
        46         0.0240     -0.8873     -0.0106      0.7880      0.1121
        47         0.0000      0.0004      0.0000      0.0000      0.0000
        48        -0.0073     -0.0424     -0.0041      0.0019      0.0003
        49         0.1204      0.0364      0.0318      0.0168      0.0024
        50         0.0012      0.0004      0.0003      0.0000      0.0000
 Ground to excited state transition velocity dipole moments (Au):
       state          X           Y           Z        Dip. S.      Osc.
         1         0.1474      0.0007     -0.0025      0.0217      0.2341
         2         0.0000      0.0000      0.0000      0.0000      0.0000
         3        -0.1090     -0.0024      0.0051      0.0119      0.0698
         4         0.0009      0.0763      0.0008      0.0058      0.0336
         5         0.0000      0.0000      0.0000      0.0000      0.0000
         6        -0.0042     -0.0078     -0.0079      0.0001      0.0007
         7         0.0000      0.0000      0.0000      0.0000      0.0000
         8        -0.2261     -0.0050      0.0106      0.0513      0.2616
         9         0.0000      0.0000      0.0000      0.0000      0.0000
        10         0.0214     -0.0223     -0.0143      0.0012      0.0052
        11        -0.0035     -0.6733     -0.0062      0.4533      1.9948
        12         0.0000      0.0000      0.0000      0.0000      0.0000
        13        -0.0055      0.0225      0.0098      0.0006      0.0027
        14         0.0000      0.0000      0.0000      0.0000      0.0000
        15         0.0000      0.0000      0.0000      0.0000      0.0000
        16         0.0775     -0.0057      0.0074      0.0061      0.0250
        17         0.0000      0.0000      0.0000      0.0000      0.0000
        18         0.0045     -0.0118     -0.0071      0.0002      0.0008
        19         0.0000      0.0000      0.0000      0.0000      0.0000
        20        -0.1520     -0.0012      0.0027      0.0231      0.0924
        21         0.0000      0.0000      0.0000      0.0000      0.0000
        22         0.0000      0.0000      0.0000      0.0000      0.0000
        23         0.0000      0.0000      0.0000      0.0000      0.0000
        24         0.0827      0.0039     -0.0044      0.0069      0.0259
[...]
 Alpha virt. eigenvalues --    0.66010   0.66070   0.66419   0.66857   0.67120
 Alpha virt. eigenvalues --    0.68531   0.68887   0.69258   0.69492   0.70531
 Alpha virt. eigenvalues --    0.70691   0.70907   0.70983   0.72003   0.72117
 Alpha virt. eigenvalues --    0.72692   0.72903   0.74064   0.74084   0.75048
 Alpha virt. eigenvalues --    0.75198   0.76082   0.76240   0.76583   0.77068
 Alpha virt. eigenvalues --    0.77862   0.77887   0.77967   0.78546   0.78598
 Alpha virt. eigenvalues --    0.79061   0.80300   0.80355   0.80493   0.80682
 Alpha virt. eigenvalues --    0.81195   0.81375   0.81599   0.81662   0.82465
 Alpha virt. eigenvalues --    0.82788   0.82789   0.83059   0.83233   0.83329
 Alpha virt. eigenvalues --    0.83463   0.83767   0.84194   0.84759   0.84897
 Alpha virt. eigenvalues --    0.85232   0.85484   0.85840   0.85916   0.86032
 Alpha virt. eigenvalues --    0.86420   0.86509   0.86808   0.87200   0.87260
 Alpha virt. eigenvalues --    0.87792   0.88072   0.88140   0.88443   0.88633
 Alpha virt. eigenvalues --    0.88837   0.89459   0.89503   0.89806   0.90241
 Alpha virt. eigenvalues --    0.90390   0.90477   0.91073   0.91098   0.91366
 Alpha virt. eigenvalues --    0.91398   0.91695   0.91967   0.92370   0.92559
 Alpha virt. eigenvalues --    0.92599   0.92737   0.92833   0.93158   0.93306
 Alpha virt. eigenvalues --    0.93520   0.93680   0.93811   0.94329   0.94396
 Alpha virt. eigenvalues --    0.94867   0.95072   0.95183   0.95533   0.96081
 Alpha virt. eigenvalues --    0.96257   0.96432   0.96914   0.96993   0.97229
 Alpha virt. eigenvalues --    0.97461   0.97725   0.97957   0.98052   0.98332
 Alpha virt. eigenvalues --    0.98679   0.99785   1.00042   1.00733   1.00813
 Alpha virt. eigenvalues --    1.01169   1.02272   1.02665   1.02760   1.03220
 Alpha virt. eigenvalues --    1.03445   1.03890   1.04121   1.04902   1.05771
 Alpha virt. eigenvalues --    1.05810   1.06161   1.06239   1.06564   1.06611
 Alpha virt. eigenvalues --    1.07650   1.07835   1.08767   1.10113   1.11464
 Alpha virt. eigenvalues --    1.11492   1.12480   1.12800   1.12894   1.15334
 Alpha virt. eigenvalues --    1.16009   1.16435   1.17567   1.18225   1.18360
 Alpha virt. eigenvalues --    1.20994   1.21358   1.22133   1.23564   1.24015
 Alpha virt. eigenvalues --    1.24075   1.24252   1.24768   1.25401   1.25825
 Alpha virt. eigenvalues --    1.26705   1.26810   1.29283   1.29960   1.32161
 Alpha virt. eigenvalues --    1.32369   1.32499   1.33315   1.33631   1.33635
 Alpha virt. eigenvalues --    1.34136   1.34230   1.34339   1.34560   1.34845
 Alpha virt. eigenvalues --    1.35434   1.35459   1.35749   1.35771   1.36569
 Alpha virt. eigenvalues --    1.36906   1.37106   1.37685   1.38855   1.39977
 Alpha virt. eigenvalues --    1.40586   1.41127   1.41130   1.41171   1.41349
 Alpha virt. eigenvalues --    1.41705   1.43621   1.43863   1.43888   1.44626
 Alpha virt. eigenvalues --    1.44900   1.46169   1.46374   1.46426   1.46576
 Alpha virt. eigenvalues --    1.47015   1.48108   1.50229   1.51196   1.51993
 Alpha virt. eigenvalues --    1.52380   1.52501   1.53186   1.53378   1.54693
 Alpha virt. eigenvalues --    1.55508   1.55560   1.55688   1.56338   1.56737
 Alpha virt. eigenvalues --    1.56913   1.58421   1.58664   1.58905   1.59845
 Alpha virt. eigenvalues --    1.60248   1.60633   1.61174   1.61175   1.66383
 Alpha virt. eigenvalues --    1.66683   1.68712   1.68943   1.69405   1.69843
 Alpha virt. eigenvalues --    1.70445   1.71196   1.71813   1.72768   1.73302
 Alpha virt. eigenvalues --    1.73951   1.74138   1.74141   1.75468   1.77699
 Alpha virt. eigenvalues --    1.77730   1.77784   1.78213   1.79210   1.79363
 Alpha virt. eigenvalues --    1.79704   1.79976   1.80644   1.80736   1.81379
 Alpha virt. eigenvalues --    1.81451   1.81528   1.81688   1.81793   1.81862
 Alpha virt. eigenvalues --    1.82691   1.82698   1.84452   1.85501   1.85534
 Alpha virt. eigenvalues --    1.85902   1.86350   1.86356   1.86595   1.86696
 Alpha virt. eigenvalues --    1.87118   1.87565   1.87586   1.87729   1.88127
 Alpha virt. eigenvalues --    1.88148   1.88343   1.88470   1.88473   1.88880
 Alpha virt. eigenvalues --    1.89104   1.90180   1.90467   1.91037   1.91165
 Alpha virt. eigenvalues --    1.92018   1.92185   1.92609   1.93156   1.93328
 Alpha virt. eigenvalues --    1.93419   1.93572   1.94257   1.94833   1.94847
 Alpha virt. eigenvalues --    1.95468   1.95785   1.95887   1.97344   1.97674
 Alpha virt. eigenvalues --    1.97793   1.99128   1.99210   1.99616   2.00085
 Alpha virt. eigenvalues --    2.02128   2.03116   2.04169   2.04228   2.04630
 Alpha virt. eigenvalues --    2.04756   2.04776   2.05022   2.05217   2.05323
 Alpha virt. eigenvalues --    2.05368   2.05964   2.06033   2.06167   2.06167
 Alpha virt. eigenvalues --    2.06368   2.06384   2.07249   2.07298   2.08523
 Alpha virt. eigenvalues --    2.08525   2.08710   2.09868   2.09942   2.10686
 Alpha virt. eigenvalues --    2.10782   2.10808   2.11265   2.11273   2.11372
 Alpha virt. eigenvalues --    2.11578   2.11672   2.11751   2.11908   2.11949
 Alpha virt. eigenvalues --    2.12190   2.12260   2.12907   2.13005   2.13197
 Alpha virt. eigenvalues --    2.13844   2.13856   2.14188   2.14244   2.14771
 Alpha virt. eigenvalues --    2.14923   2.15225   2.15530   2.15685   2.15749
 Alpha virt. eigenvalues --    2.16374   2.16768   2.18533   2.20103   2.20522
 Alpha virt. eigenvalues --    2.21874   2.22198   2.22708   2.24187   2.24294
 Alpha virt. eigenvalues --    2.25714   2.26974   2.27288   2.27301   2.29172
 Alpha virt. eigenvalues --    2.29400   2.30457   2.30555   2.31100   2.31184
 Alpha virt. eigenvalues --    2.32054   2.32752   2.32847   2.33338   2.33463
 Alpha virt. eigenvalues --    2.34396   2.34541   2.34771   2.34779   2.35060
 Alpha virt. eigenvalues --    2.35268   2.35322   2.35379   2.35694   2.36248
 Alpha virt. eigenvalues --    2.36498   2.37449   2.37461   2.37812   2.37868
 Alpha virt. eigenvalues --    2.38385   2.38453   2.38936   2.38983   2.39459
 Alpha virt. eigenvalues --    2.39465   2.40453   2.40745   2.41086   2.41122
 Alpha virt. eigenvalues --    2.41581   2.41593   2.41602   2.42911   2.46374
 Alpha virt. eigenvalues --    2.46626   2.46721   2.47275   2.48054   2.50432
 Alpha virt. eigenvalues --    2.52892   2.53305   2.53335   2.53627   2.53845
 Alpha virt. eigenvalues --    2.53851   2.54322   2.54468   2.54550   2.54583
 Alpha virt. eigenvalues --    2.55184   2.57400   2.57797   2.57955   2.58458
 Alpha virt. eigenvalues --    2.58968   2.59012   2.59315   2.59742   2.60075
 Alpha virt. eigenvalues --    2.60102   2.60304   2.60576   2.60722   2.60980
 Alpha virt. eigenvalues --    2.62486   2.62887   2.63150   2.63170   2.64389
 Alpha virt. eigenvalues --    2.65680   2.65950   2.66000   2.67204   2.67534
 Alpha virt. eigenvalues --    2.67632   2.68046   2.68185   2.68240   2.68453
 Alpha virt. eigenvalues --    2.68550   2.68611   2.69891   2.70757   2.71402
 Alpha virt. eigenvalues --    2.72769   2.73031   2.73333   2.73613   2.73667
 Alpha virt. eigenvalues --    2.74353   2.74589   2.74608   2.75056   2.75079
 Alpha virt. eigenvalues --    2.75722   2.75970   2.76172   2.76615   2.76661
 Alpha virt. eigenvalues --    2.76876   2.76914   2.78521   2.79437   2.80446
 Alpha virt. eigenvalues --    2.82647   2.82860   2.83864   2.85687   2.87559
 Alpha virt. eigenvalues --    2.87695   2.87719   2.87765   2.87804   2.88076
 Alpha virt. eigenvalues --    2.88091   2.88252   2.88264   2.88700   2.88833
 Alpha virt. eigenvalues --    2.88995   2.89041   2.89158   2.90029   2.90032
 Alpha virt. eigenvalues --    2.90704   2.90715   2.91017   2.91061   2.91121
 Alpha virt. eigenvalues --    2.91357   2.91383   2.91614   2.91806   2.91931
 Alpha virt. eigenvalues --    2.91955   2.92096   2.92331   2.98578   3.01975
 Alpha virt. eigenvalues --    3.05314   3.06188   3.10126   3.11049   3.13956
 Alpha virt. eigenvalues --    3.14730   3.15889   3.17124   3.18252   3.18524
 Alpha virt. eigenvalues --    3.18535   3.19149   3.19558   3.19597   3.19741
 Alpha virt. eigenvalues --    3.20308   3.21189   3.23600   3.23609   3.23976
 Alpha virt. eigenvalues --    3.23986   3.24096   3.24127   3.24541   3.24572
 Alpha virt. eigenvalues --    3.27759   3.30043   3.30314   3.33086   3.33519
 Alpha virt. eigenvalues --    3.33606   3.34024   3.34058   3.34466   3.34591
 Alpha virt. eigenvalues --    3.37481   3.41513   3.42221   3.43521   3.43541
 Alpha virt. eigenvalues --    3.44198   3.44205   3.44850   3.44919   3.46007
 Alpha virt. eigenvalues --    3.46238   3.46313   3.46970   3.47343   3.47675
 Alpha virt. eigenvalues --    3.48015   3.48026   3.48051   3.48208   3.48621
 Alpha virt. eigenvalues --    3.48942   3.49079   3.49204   3.49487   3.49528
 Alpha virt. eigenvalues --    3.51477   3.52320   3.52330   3.54067   3.54097
 Alpha virt. eigenvalues --    3.54680   3.54941   3.69187   3.70303   3.85783
 Alpha virt. eigenvalues --    3.86701   4.06894   4.09882   4.10203   4.11867
 Alpha virt. eigenvalues --    4.11898   4.14178   4.14750   4.15169   4.16039
 Alpha virt. eigenvalues --    4.19198   4.22190   4.22761   4.32074   4.32144
 Alpha virt. eigenvalues --    4.33628   4.33815   4.34300   4.35974   4.38205
 Alpha virt. eigenvalues --    4.40447   4.43991   4.45493   4.45655   4.45762
 Alpha virt. eigenvalues --    4.49242   4.49249   4.52329   4.52390   4.54243
 Alpha virt. eigenvalues --    4.54314   4.54867   4.55078   4.57657   4.59179
 Alpha virt. eigenvalues --    4.59187   4.59344   4.65610   4.65840   4.68946
 Alpha virt. eigenvalues --    4.68970   4.77860   4.80697   4.89252   5.06049
          Condensed to atoms (all electrons):
 Mulliken atomic charges:
              1
     1  Si   0.649506
     2  C   -0.074014
     3  C    0.118159
     4  C   -0.224197
     5  H    0.106616
     6  C    0.119002
     7  C   -0.118320
     8  H    0.087961
     9  C   -0.097435
    10  H    0.087935
    11  C   -0.097379
    12  H    0.087939
    13  C   -0.118375
    14  H    0.087709
    15  C    0.119637
    16  C   -0.224557
    17  H    0.106295
    18  C    0.118052
    19  C    0.362852
    20  C   -0.579171
    21  C   -0.251110
    22  H    0.098009
    23  C   -0.319980
    24  H    0.117082
    25  H    0.100317
    26  H    0.092013
    27  C   -0.320036
    28  H    0.092735
    29  H    0.099003
    30  H    0.115251
    31  C   -0.248193
    32  H    0.106124
    33  C   -0.323753
    34  H    0.096961
    35  H    0.102127
    36  H    0.105581
    37  C   -0.319131
    38  H    0.102896
    39  H    0.115735
    40  H    0.090840
    41  C   -0.247987
    42  H    0.107878
    43  C   -0.324723
    44  H    0.103885
    45  H    0.096559
    46  H    0.105318
    47  C   -0.319464
    48  H    0.113656
    49  H    0.103446
    50  H    0.090746
    51  Si   0.649517
    52  C   -0.074015
    53  C    0.118159
    54  C   -0.224196
    55  H    0.106614
    56  C    0.119004
    57  C   -0.118321
    58  H    0.087960
    59  C   -0.097434
    60  H    0.087935
    61  C   -0.097380
    62  H    0.087938
    63  C   -0.118374
    64  H    0.087709
    65  C    0.119636
    66  C   -0.224556
    67  H    0.106295
    68  C    0.118053
    69  C    0.362849
    70  C   -0.579174
    71  C   -0.251107
    72  H    0.098009
    73  C   -0.319981
    74  H    0.117080
    75  H    0.100317
    76  H    0.092014
    77  C   -0.320033
    78  H    0.092735
    79  H    0.099001
    80  H    0.115252
    81  C   -0.248195
    82  H    0.106121
    83  C   -0.323752
    84  H    0.096961
    85  H    0.102124
    86  H    0.105583
    87  C   -0.319132
    88  H    0.102898
    89  H    0.115735
    90  H    0.090838
    91  C   -0.247987
    92  H    0.107877
    93  C   -0.324723
    94  H    0.103885
    95  H    0.096559
    96  H    0.105318
    97  C   -0.319465
    98  H    0.113657
    99  H    0.103446
   100  H    0.090746
 Sum of Mulliken atomic charges =   0.00000
 Mulliken charges with hydrogens summed into heavy atoms:
              1
     1  Si   0.649506
     2  C   -0.074014
     3  C    0.118159
     4  C   -0.117581
     6  C    0.119002
     7  C   -0.030359
     9  C   -0.009500
    11  C   -0.009440
    13  C   -0.030666
    15  C    0.119637
    16  C   -0.118262
    18  C    0.118052
    19  C    0.362852
    20  C   -0.579171
    21  C   -0.153101
    23  C   -0.010569
    27  C   -0.013047
    31  C   -0.142069
    33  C   -0.019084
    37  C   -0.009660
    41  C   -0.140109
    43  C   -0.018962
    47  C   -0.011617
    51  Si   0.649517
    52  C   -0.074015
    53  C    0.118159
    54  C   -0.117582
    56  C    0.119004
    57  C   -0.030361
    59  C   -0.009498
    61  C   -0.009442
    63  C   -0.030665
    65  C    0.119636
    66  C   -0.118261
    68  C    0.118053
    69  C    0.362849
    70  C   -0.579174
    71  C   -0.153098
    73  C   -0.010570
    77  C   -0.013044
    81  C   -0.142074
    83  C   -0.019084
    87  C   -0.009661
    91  C   -0.140110
    93  C   -0.018961
    97  C   -0.011616
 Sum of Mulliken charges with hydrogens summed into heavy atoms =   0.00000
 Electronic spatial extent (au):  <R**2>=          41730.2763
 Charge=              0.0000 electrons
 Dipole moment (field-independent basis, Debye):
    X=              0.0000    Y=              0.0000    Z=              0.0000  Tot=              0.0000
 Quadrupole moment (field-independent basis, Debye-Ang):
   XX=           -264.2451   YY=           -268.9366   ZZ=           -300.2348
   XY=              0.2529   XZ=             -0.9786   YZ=              0.6023
 Traceless Quadrupole moment (field-independent basis, Debye-Ang):
   XX=             13.5604   YY=              8.8689   ZZ=            -22.4293
   XY=              0.2529   XZ=             -0.9786   YZ=              0.6023
 Octapole moment (field-independent basis, Debye-Ang**2):
  XXX=             -0.0029  YYY=              0.0006  ZZZ=              0.0002  XYY=             -0.0005
  XXY=             -0.0017  XXZ=              0.0003  XZZ=              0.0002  YZZ=              0.0006
  YYZ=             -0.0016  XYZ=              0.0018
 Hexadecapole moment (field-independent basis, Debye-Ang**3):
 XXXX=         -40266.1994 YYYY=         -12535.1859 ZZZZ=          -3082.5778 XXXY=             24.2661
 XXXZ=            -53.1713 YYYX=             -9.2781 YYYZ=             34.0987 ZZZX=            -25.0183
 ZZZY=            -11.4751 XXYY=          -8963.7285 XXZZ=          -7384.4567 YYZZ=          -3034.7514
 XXYZ=              5.0586 YYXZ=              9.5444 ZZXY=             11.6531
 N-N= 5.759932311628D+03 E-N=-1.685113766806D+04  KE= 2.269105080230D+03
 Leave Link  601 at Sun Jan  1 21:52:36 2012, MaxMem= 1073741824 cpu:      12.2
 (Enter /apps/gaussian/g09/g09/l9999.exe)
 1\1\GINC-CX1-50-4-19\SP\RTD-B3LYP-FC\6-31G(d,p)\C44H54Si2\JMF02\01-Jan
 -2012\0\\#p guess=read geom=checkpoint scf=verytight b3lyp/6-31g(d,p) 
 td(singlets,nstates=50)\\Autjob.\\0,1\Si,0,-5.923374551,-0.0291205997,
 -0.098461426\C,0,-1.4325403314,0.0016267433,-0.0167117414\C,0,-0.72408
 45301,1.2375509936,-0.0215712733\C,0,-1.3997166917,2.4761917655,-0.042
 5142379\H,0,-2.4847023907,2.4731206593,-0.0564492521\C,0,-0.7207480552
 ,3.6895208365,-0.0464374162\C,0,-1.4051011861,4.9497148008,-0.06677193
 07\H,0,-2.4916548254,4.9476543951,-0.079200587\C,0,-0.7090148585,6.125
 3610976,-0.069988797\H,0,-1.2386096668,7.0733295747,-0.0853170379\C,0,
 0.7225919786,6.1238928422,-0.0531619639\H,0,1.2543946854,7.0707451317,
 -0.056085595\C,0,1.4159454715,4.9468012211,-0.0335746004\H,0,2.5024934
 599,4.9425005486,-0.0207000684\C,0,0.7287032071,3.6880405428,-0.029276
 844\C,0,1.4051316493,2.4734326562,-0.0094292344\H,0,2.4900452553,2.468
 6245624,0.0023724322\C,0,0.7270383778,1.2360045501,-0.0044983081\C,0,-
 2.8527240353,0.0022873941,-0.0358184153\C,0,-4.0775238362,-0.000814025
 9,-0.0529609539\C,0,-6.4525282406,-0.4516626641,-1.8921296928\H,0,-7.5
 531212621,-0.4712247868,-1.8851883592\C,0,-6.0072456788,0.6251896903,-
 2.9004041405\H,0,-4.915646132,0.7195102006,-2.9210290751\H,0,-6.420618
 6876,1.6121389804,-2.6684084943\H,0,-6.3325368309,0.3656521342,-3.9157
 107119\C,0,-5.9629434935,-1.8414137913,-2.3414612107\H,0,-6.2870172244
 ,-2.0542932663,-3.3679015665\H,0,-6.3479692408,-2.6449410079,-1.705299
 828\H,0,-4.8686330743,-1.8992653554,-2.3260709196\C,0,-6.4789905957,-1
 .43609046,1.0821795633\H,0,-6.0405418923,-2.333235794,0.6189451419\C,0
 ,-8.0054254978,-1.6429823806,1.1235119352\H,0,-8.2602747341,-2.5425313
 017,1.6978936583\H,0,-8.4405902414,-1.7596086273,0.1250985661\H,0,-8.5
 112407193,-0.800532468,1.6078767354\C,0,-5.8968579373,-1.3400519877,2.
 5047960363\H,0,-6.3268081825,-0.5012013354,3.062256497\H,0,-4.81078315
 59,-1.2079328124,2.4924773705\H,0,-6.1169514848,-2.251549005,3.0749663
 227\C,0,-6.514072394,1.7433495404,0.3373640359\H,0,-5.9764455637,2.367
 0427471,-0.3931038218\C,0,-8.0210153571,1.9738531498,0.1113310813\H,0,
 -8.3386066798,1.7033113126,-0.9010584248\H,0,-8.2774801636,3.030169038
 8,0.2620762177\H,0,-8.6297425274,1.3939363908,0.8136444517\C,0,-6.0887
 353815,2.2253516655,1.7367875706\H,0,-5.0201154167,2.071379572,1.91725
 39261\H,0,-6.6375829738,1.700938319,2.5262591517\H,0,-6.2970391175,3.2
 958852889,1.8585873866\Si,0,5.9233831214,0.0291230832,0.0985134878\C,0
 ,1.4325463943,-0.001684536,0.016848885\C,0,0.7240911043,-1.2376066791,
 0.021697593\C,0,1.3997235158,-2.4762495357,0.0426147216\H,0,2.48470936
 24,-2.4731788773,0.0565370558\C,0,0.720755227,-3.6895785282,0.04652814
 63\C,0,1.4051079063,-4.9497717145,0.0668413353\H,0,2.4916618327,-4.947
 7150627,0.0792615841\C,0,0.7090219717,-6.1254191974,0.070045386\H,0,1.
 2386186271,-7.0733864273,0.0853565885\C,0,-0.7225834741,-6.1239489709,
 0.0532287593\H,0,-1.2543885802,-7.0708004826,0.0561403202\C,0,-1.41593
 93677,-4.9468584854,0.03366339\H,0,-2.5024867932,-4.9425590938,0.02079
 49459\C,0,-0.7286958329,-3.6880979348,0.0293777654\C,0,-1.4051244099,-
 2.4734904272,0.0095480898\H,0,-2.4900375224,-2.4686831229,-0.002254239
 9\C,0,-0.7270330514,-1.2360599316,0.004637142\C,0,2.8527309901,-0.0023
 422787,0.0359215405\C,0,4.0775317676,0.0007648304,0.0530077651\C,0,6.4
 525105798,0.451525259,1.8922235045\H,0,7.5531003489,0.4712131875,1.885
 2616943\C,0,6.0073607671,-0.625482536,2.9003916868\H,0,4.9157706625,-0
 .7199140838,2.9210227806\H,0,6.4208271939,-1.6123654338,2.6682846656\H
 ,0,6.33264086,-0.3660189381,3.9157201287\C,0,5.9627986041,1.8411727925
 ,2.3417333492\H,0,6.2868898769,2.0539649669,3.3681860082\H,0,6.3477196
 346,2.644810327,1.7056479607\H,0,4.8684822855,1.8989122213,2.326388593
 8\C,0,6.4789781381,1.4361943461,-1.0820133639\H,0,6.0407250317,2.33333
 80178,-0.6185908482\C,0,8.005435711,1.6428779262,-1.1235620329\H,0,8.2
 603201882,2.5424837043,-1.6978390713\H,0,8.4407840256,1.7592808204,-0.
 1252012474\H,0,8.5110511278,0.8004349624,-1.6081476846\C,0,5.896608241
 3,1.3404091413,-2.504549566\H,0,6.3262986321,0.5015196866,-3.062154055
 9\H,0,4.8105100847,1.2085003161,-2.4920674052\H,0,6.116794835,2.251915
 9016,-3.0746670212\C,0,6.5141213111,-1.7432784917,-0.3375151582\H,0,5.
 9764119472,-2.3670861581,0.3927940705\C,0,8.0210417653,-1.9738592768,-
 0.1114153644\H,0,8.3385694931,-1.7035398843,0.9010523717\H,0,8.2774839
 384,-3.0301512509,-0.2623626706\H,0,8.629838,-1.3938128488,-0.81356220
 05\C,0,6.0888941655,-2.225013091,-1.7370694612\H,0,5.0202882548,-2.071
 0042958,-1.9175871017\H,0,6.637805728,-1.7004465134,-2.5263965614\H,0,
 6.2972065336,-3.2955240791,-1.8590584139\\Version=EM64L-G09RevA.02\Sta
 te=1-A\HF=-2288.2888222\RMSD=4.028e-09\PG=C01 [X(C44H54Si2)]\\@


 KNOWLEDGE IS EXPERIMENT'S DAUGHTER.
 -- LEONARDO DA VINCI, IN "PENSIERI" CA. 1492
 Job cpu time:  2 days  0 hours 15 minutes 47.9 seconds.
 File lengths (MBytes):  RWF=   9219 Int=      0 D2E=      0 Chk=   1530 Scr=      1
 Normal termination of Gaussian 09 at Sun Jan  1 21:53:37 2012.
