 Entering Gaussian System, Link 0=g03
 Input=k01029_full_PBC_TV1.com
 Output=k01029_full_PBC_TV1.log
 Initial command:
 /apps/gaussian/g09_c01/g09/l1.exe /tmp/pbs.3764037.cx1b/Gau-14913.inp -scrdir=/tmp/pbs.3764037.cx1b/
 Entering Link 1 = /apps/gaussian/g09_c01/g09/l1.exe PID=     14921.
  
 Copyright (c) 1988,1990,1992,1993,1995,1998,2003,2009,2011,
            Gaussian, Inc.  All Rights Reserved.
  
 This is part of the Gaussian(R) 09 program.  It is based on
 the Gaussian(R) 03 system (copyright 2003, Gaussian, Inc.),
 the Gaussian(R) 98 system (copyright 1998, Gaussian, Inc.),
 the Gaussian(R) 94 system (copyright 1995, Gaussian, Inc.),
 the Gaussian 92(TM) system (copyright 1992, Gaussian, Inc.),
 the Gaussian 90(TM) system (copyright 1990, Gaussian, Inc.),
 the Gaussian 88(TM) system (copyright 1988, Gaussian, Inc.),
 the Gaussian 86(TM) system (copyright 1986, Carnegie Mellon
 University), and the Gaussian 82(TM) system (copyright 1983,
 Carnegie Mellon University). Gaussian is a federally registered
 trademark of Gaussian, Inc.
  
 This software contains proprietary and confidential information,
 including trade secrets, belonging to Gaussian, Inc.
  
 This software is provided under written license and may be
 used, copied, transmitted, or stored only in accord with that
 written license.
  
 The following legend is applicable only to US Government
 contracts under FAR:
  
                    RESTRICTED RIGHTS LEGEND
  
 Use, reproduction and disclosure by the US Government is
 subject to restrictions as set forth in subparagraphs (a)
 and (c) of the Commercial Computer Software - Restricted
 Rights clause in FAR 52.227-19.
  
 Gaussian, Inc.
 340 Quinnipiac St., Bldg. 40, Wallingford CT 06492
  
  
 ---------------------------------------------------------------
 Warning -- This program may not be used in any manner that
 competes with the business of Gaussian, Inc. or will provide
 assistance to any competitor of Gaussian, Inc.  The licensee
 of this program is prohibited from giving any competitor of
 Gaussian, Inc. access to this program.  By using this program,
 the user acknowledges that Gaussian, Inc. is engaged in the
 business of creating and licensing software in the field of
 computational chemistry and represents and warrants to the
 licensee that it is not a competitor of Gaussian, Inc. and that
 it will not use this program in any manner prohibited above.
 ---------------------------------------------------------------
  

 Cite this work as:
 Gaussian 09, Revision C.01,
 M. J. Frisch, G. W. Trucks, H. B. Schlegel, G. E. Scuseria, 
 M. A. Robb, J. R. Cheeseman, G. Scalmani, V. Barone, B. Mennucci, 
 G. A. Petersson, H. Nakatsuji, M. Caricato, X. Li, H. P. Hratchian, 
 A. F. Izmaylov, J. Bloino, G. Zheng, J. L. Sonnenberg, M. Hada, 
 M. Ehara, K. Toyota, R. Fukuda, J. Hasegawa, M. Ishida, T. Nakajima, 
 Y. Honda, O. Kitao, H. Nakai, T. Vreven, J. A. Montgomery, Jr., 
 J. E. Peralta, F. Ogliaro, M. Bearpark, J. J. Heyd, E. Brothers, 
 K. N. Kudin, V. N. Staroverov, T. Keith, R. Kobayashi, J. Normand, 
 K. Raghavachari, A. Rendell, J. C. Burant, S. S. Iyengar, J. Tomasi, 
 M. Cossi, N. Rega, J. M. Millam, M. Klene, J. E. Knox, J. B. Cross, 
 V. Bakken, C. Adamo, J. Jaramillo, R. Gomperts, R. E. Stratmann, 
 O. Yazyev, A. J. Austin, R. Cammi, C. Pomelli, J. W. Ochterski, 
 R. L. Martin, K. Morokuma, V. G. Zakrzewski, G. A. Voth, 
 P. Salvador, J. J. Dannenberg, S. Dapprich, A. D. Daniels, 
 O. Farkas, J. B. Foresman, J. V. Ortiz, J. Cioslowski, 
 and D. J. Fox, Gaussian, Inc., Wallingford CT, 2010.
 
 ******************************************
 Gaussian 09:  EM64L-G09RevC.01 23-Sep-2011
                 1-Feb-2013 
 ******************************************
 %Mem=8Gb
 %nproc=8
 Will use up to    8 processors via shared memory.
 ----------------------------------------------------------------
 #p scf=verytight b3lyp/6-31g(d,p) td(singlets,nstates=25) nosymm
 ----------------------------------------------------------------
 1/38=1/1;
 2/12=2,15=1,17=6,18=5,40=1/2;
 3/5=1,6=6,7=101,11=2,16=1,25=1,30=1,74=-5/1,2,8,3;
 4//1;
 5/5=2,17=3,38=5/2;
 8/6=1,10=2,108=25/1;
 9/41=25,42=1,48=1/14;
 6/7=2,8=2,9=2,10=2/1;
 99/5=1,9=1/99;
 Leave Link    1 at Fri Feb  1 21:50:32 2013, MaxMem= 1073741824 cpu:       0.3
 (Enter /apps/gaussian/g09_c01/g09/l101.exe)
 ----------------
 CSD ENTRY k01029
 ----------------
 Charge =  0 Multiplicity = 1
 Symbolic Z-Matrix:
 Si(PDBName=Si,ResName=UNK,ResNum=1)  7.32462   3.49406   13.73454 
 C(PDBName=C1,ResName=UNK,ResNum=1)  7.8952    5.27475   9.66925 
 C(PDBName=C2,ResName=UNK,ResNum=1)  6.90248   6.16343   9.19115 
 C(PDBName=C3,ResName=UNK,ResNum=1)  5.82251   6.57504   9.99184 
 H(PDBName=H3,ResName=UNK,ResNum=1)  5.77488   6.2656    10.88727 
 C(PDBName=C4,ResName=UNK,ResNum=1)  4.82732   7.41473   9.52558 
 C(PDBName=C5,ResName=UNK,ResNum=1)  3.72745   7.82639   10.33834 
 H(PDBName=H5,ResName=UNK,ResNum=1)  3.67046   7.52245   11.23778 
 C(PDBName=C6,ResName=UNK,ResNum=1)  2.76583   8.63928   9.85033 
 H(PDBName=H6,ResName=UNK,ResNum=1)  2.04726   8.90783   10.41107 
 C(PDBName=C7,ResName=UNK,ResNum=1)  2.82228   9.09626   8.50712 
 H(PDBName=H7,ResName=UNK,ResNum=1)  2.13484   9.66213   8.17498 
 C(PDBName=C8,ResName=UNK,ResNum=1)  3.83791   8.73828   7.69838 
 H(PDBName=H8,ResName=UNK,ResNum=1)  3.85917   9.05918   6.80471 
 C(PDBName=C9,ResName=UNK,ResNum=1)  4.88648   7.88165   8.1641 
 C(PDBName=C10,ResName=UNK,ResNum=1)  5.95057   7.50193   7.36834 
 H(PDBName=H10,ResName=UNK,ResNum=1)  5.9942    7.82561   6.47545 
 C(PDBName=C11,ResName=UNK,ResNum=1)  6.97287   6.64975   7.83073 
 C(PDBName=C12,ResName=UNK,ResNum=1)  7.7749    4.74422   10.99811 
 C(PDBName=C13,ResName=UNK,ResNum=1)  7.63091   4.266     12.09567 
 C(PDBName=C14,ResName=UNK,ResNum=1)  7.49985   1.62842   13.53715 
 H(PDBName=H14,ResName=UNK,ResNum=1)  7.33158   1.21444   14.43072 
 C(PDBName=C15,ResName=UNK,ResNum=1)  6.46823   1.04703   12.55338 
 H(PDBName=H15A,ResName=UNK,ResNum=1)  6.55448   1.49646   11.68554 
 H(PDBName=H15B,ResName=UNK,ResNum=1)  5.56563   1.1873    12.90736 
 H(PDBName=H15C,ResName=UNK,ResNum=1)  6.62993   0.08717   12.4404 
 C(PDBName=C16,ResName=UNK,ResNum=1)  8.91997   1.24171   13.10837 
 H(PDBName=H16A,ResName=UNK,ResNum=1)  8.97601   0.26859   13.00293 
 H(PDBName=H16B,ResName=UNK,ResNum=1)  9.55799   1.53244   13.79244 
 H(PDBName=H16C,ResName=UNK,ResNum=1)  9.13397   1.67605   12.25761 
 C(PDBName=C17,ResName=UNK,ResNum=1)  8.65152   4.13965   14.89511 
 H(PDBName=H17,ResName=UNK,ResNum=1)  9.52442   3.90315   14.46884 
 C(PDBName=C18,ResName=UNK,ResNum=1)  8.66549   3.47236   16.2714 
 H(PDBName=H18A,ResName=UNK,ResNum=1)  9.47245   3.7436    16.75626 
 H(PDBName=H18B,ResName=UNK,ResNum=1)  8.6619    2.49852   16.16395 
 H(PDBName=H18C,ResName=UNK,ResNum=1)  7.8732    3.74819   16.77634 
 C(PDBName=C19,ResName=UNK,ResNum=1)  8.65419   5.66224   15.03605 
 H(PDBName=H19A,ResName=UNK,ResNum=1)  7.83292   5.94888   15.48773 
 H(PDBName=H19B,ResName=UNK,ResNum=1)  8.69907   6.07195   14.14889 
 H(PDBName=H19C,ResName=UNK,ResNum=1)  9.43158   5.93994   15.56316 
 C(PDBName=C20,ResName=UNK,ResNum=1)  5.57435   3.93663   14.24247 
 H(PDBName=H20,ResName=UNK,ResNum=1)  5.02319   3.48799   13.53705 
 C(PDBName=C21,ResName=UNK,ResNum=1)  5.14579   3.23008   15.48524 
 H(PDBName=H21A,ResName=UNK,ResNum=1)  5.48826   2.31096   15.47498 
 H(PDBName=H21B,ResName=UNK,ResNum=1)  4.167     3.21252   15.5308 
 H(PDBName=H21C,ResName=UNK,ResNum=1)  5.50069   3.7012    16.26802 
 C(PDBName=C22,ResName=UNK,ResNum=1)  5.16917   5.33444   14.12193 
 H(PDBName=H22A,ResName=UNK,ResNum=1)  5.53964   5.71201   13.29601 
 H(PDBName=H22B,ResName=UNK,ResNum=1)  5.50544   5.83869   14.89183 
 H(PDBName=H22C,ResName=UNK,ResNum=1)  4.19131   5.39022   14.09773 
 Si(PDBName=Si,ResName=UNK,ResNum=1)  8.62412   8.03391   2.94371 
 C(PDBName=C1,ResName=UNK,ResNum=1)  8.05348   6.25221   7.009 
 C(PDBName=C2,ResName=UNK,ResNum=1)  9.0462    5.36354   7.4871 
 C(PDBName=C3,ResName=UNK,ResNum=1)  10.12518   4.95198   6.68651 
 H(PDBName=H3,ResName=UNK,ResNum=1)  10.17385   5.26236   5.79098 
 C(PDBName=C4,ResName=UNK,ResNum=1)  11.12136   4.11223   7.15267 
 C(PDBName=C5,ResName=UNK,ResNum=1)  12.22129   3.70158   6.33992 
 H(PDBName=H5,ResName=UNK,ResNum=1)  12.27823   4.00452   5.44047 
 C(PDBName=C6,ResName=UNK,ResNum=1)  13.18291   2.88868   6.82792 
 H(PDBName=H6,ResName=UNK,ResNum=1)  13.90142   2.61913   6.26718 
 C(PDBName=C7,ResName=UNK,ResNum=1)  13.1264   2.43071   8.17113 
 H(PDBName=H7,ResName=UNK,ResNum=1)  13.8139   1.86584   8.50327 
 C(PDBName=C8,ResName=UNK,ResNum=1)  12.11077   2.78868   8.97987 
 H(PDBName=H8,ResName=UNK,ResNum=1)  12.08951   2.46778   9.87354 
 C(PDBName=C9,ResName=UNK,ResNum=1)  11.0622   3.64532   8.51415 
 C(PDBName=C10,ResName=UNK,ResNum=1)  9.99717   4.02609   9.31002 
 H(PDBName=H10,ResName=UNK,ResNum=1)  9.95448   3.70136   10.2028 
 C(PDBName=C11,ResName=UNK,ResNum=1)  8.97481   4.87727   8.84762 
 C(PDBName=C12,ResName=UNK,ResNum=1)  8.17379   6.78274   5.68014 
 C(PDBName=C13,ResName=UNK,ResNum=1)  8.31777   7.26097   4.58258 
 C(PDBName=C14,ResName=UNK,ResNum=1)  8.44883   9.89854   3.1411 
 H(PDBName=H14,ResName=UNK,ResNum=1)  8.61617   10.31358   2.24764 
 C(PDBName=C15,ResName=UNK,ResNum=1)  9.47946   10.47999   4.12497 
 H(PDBName=H15A,ResName=UNK,ResNum=1)  9.3942    10.03051   4.99271 
 H(PDBName=H15B,ResName=UNK,ResNum=1)  10.38306   10.33966   3.7709 
 H(PDBName=H15C,ResName=UNK,ResNum=1)  9.31881   11.44079   4.23785 
 C(PDBName=C16,ResName=UNK,ResNum=1)  7.02872   10.28525   3.56988 
 H(PDBName=H16A,ResName=UNK,ResNum=1)  6.97267   11.25837   3.67532 
 H(PDBName=H16B,ResName=UNK,ResNum=1)  6.39069   9.99453   2.88581 
 H(PDBName=H16C,ResName=UNK,ResNum=1)  6.81372   9.85097   4.42074 
 C(PDBName=C17,ResName=UNK,ResNum=1)  7.29722   7.38831   1.78315 
 H(PDBName=H17,ResName=UNK,ResNum=1)  6.42327   7.62387   2.20951 
 C(PDBName=C18,ResName=UNK,ResNum=1)  7.28226   8.05565   0.40695 
 H(PDBName=H18A,ResName=UNK,ResNum=1)  6.47523   7.78342  -0.07791 
 H(PDBName=H18B,ResName=UNK,ResNum=1)  7.28579   9.0285    0.51441 
 H(PDBName=H18C,ResName=UNK,ResNum=1)  8.07549   7.77878  -0.09808 
 C(PDBName=C19,ResName=UNK,ResNum=1)  7.29455   5.86572   1.64221 
 H(PDBName=H19A,ResName=UNK,ResNum=1)  8.11577   5.57808   1.19052 
 H(PDBName=H19B,ResName=UNK,ResNum=1)  7.24962   5.45501   2.52936 
 H(PDBName=H19C,ResName=UNK,ResNum=1)  6.51716   5.58803   1.11509 
 C(PDBName=C20,ResName=UNK,ResNum=1)  10.37439   7.59133   2.43578 
 H(PDBName=H20,ResName=UNK,ResNum=1)  10.92549   8.03897   3.1412 
 C(PDBName=C21,ResName=UNK,ResNum=1)  10.80295   8.29788   1.19302 
 H(PDBName=H21A,ResName=UNK,ResNum=1)  10.45943   9.21606   1.20337 
 H(PDBName=H21B,ResName=UNK,ResNum=1)  11.78169   8.31444   1.14745 
 H(PDBName=H21C,ResName=UNK,ResNum=1)  10.44805   7.82676   0.41024 
 C(PDBName=C22,ResName=UNK,ResNum=1)  10.77857   6.19358   2.55643 
 H(PDBName=H22A,ResName=UNK,ResNum=1)  10.40905   5.81495   3.38224 
 H(PDBName=H22B,ResName=UNK,ResNum=1)  10.44225   5.68833   1.78652 
 H(PDBName=H22C,ResName=UNK,ResNum=1)  11.75738   6.13674   2.58052 
 Si(PDBName=Si,ResName=UNK,ResNum=1)  14.8896   3.49406   13.7345 
 C(PDBName=C1,ResName=UNK,ResNum=1)  15.4602   5.27475   9.66925 
 C(PDBName=C2,ResName=UNK,ResNum=1)  14.4675   6.16343   9.19115 
 C(PDBName=C3,ResName=UNK,ResNum=1)  13.3875   6.57504   9.99184 
 H(PDBName=H3,ResName=UNK,ResNum=1)  13.3399   6.2656    10.8873 
 C(PDBName=C4,ResName=UNK,ResNum=1)  12.3923   7.41473   9.52558 
 C(PDBName=C5,ResName=UNK,ResNum=1)  11.2924   7.82639   10.3383 
 H(PDBName=H5,ResName=UNK,ResNum=1)  11.2355   7.52245   11.2378 
 C(PDBName=C6,ResName=UNK,ResNum=1)  10.3308   8.63928   9.85033 
 H(PDBName=H6,ResName=UNK,ResNum=1)  9.61226   8.90783   10.4111 
 C(PDBName=C7,ResName=UNK,ResNum=1)  10.3873   9.09626   8.50712 
 H(PDBName=H7,ResName=UNK,ResNum=1)  9.69984   9.66213   8.17498 
 C(PDBName=C8,ResName=UNK,ResNum=1)  11.4029   8.73828   7.69838 
 H(PDBName=H8,ResName=UNK,ResNum=1)  11.4242   9.05918   6.80471 
 C(PDBName=C9,ResName=UNK,ResNum=1)  12.4515   7.88165   8.1641 
 C(PDBName=C10,ResName=UNK,ResNum=1)  13.5156   7.50193   7.36834 
 H(PDBName=H10,ResName=UNK,ResNum=1)  13.5592   7.82561   6.47545 
 C(PDBName=C11,ResName=UNK,ResNum=1)  14.5379   6.64975   7.83073 
 C(PDBName=C12,ResName=UNK,ResNum=1)  15.3399   4.74422   10.9981 
 C(PDBName=C13,ResName=UNK,ResNum=1)  15.1959   4.266     12.0957 
 C(PDBName=C14,ResName=UNK,ResNum=1)  15.0649   1.62842   13.5371 
 H(PDBName=H14,ResName=UNK,ResNum=1)  14.8966   1.21444   14.4307 
 C(PDBName=C15,ResName=UNK,ResNum=1)  14.0332   1.04703   12.5534 
 H(PDBName=H15A,ResName=UNK,ResNum=1)  14.1195   1.49646   11.6855 
 H(PDBName=H15B,ResName=UNK,ResNum=1)  13.1306   1.1873    12.9074 
 H(PDBName=H15C,ResName=UNK,ResNum=1)  14.1949   0.08717   12.4404 
 C(PDBName=C16,ResName=UNK,ResNum=1)  16.485    1.24171   13.1084 
 H(PDBName=H16A,ResName=UNK,ResNum=1)  16.541    0.26859   13.0029 
 H(PDBName=H16B,ResName=UNK,ResNum=1)  17.123    1.53244   13.7924 
 H(PDBName=H16C,ResName=UNK,ResNum=1)  16.699    1.67605   12.2576 
 C(PDBName=C17,ResName=UNK,ResNum=1)  16.2165   4.13965   14.8951 
 H(PDBName=H17,ResName=UNK,ResNum=1)  17.0894   3.90315   14.4688 
 C(PDBName=C18,ResName=UNK,ResNum=1)  16.2305   3.47236   16.2714 
 H(PDBName=H18A,ResName=UNK,ResNum=1)  17.0375   3.7436    16.7563 
 H(PDBName=H18B,ResName=UNK,ResNum=1)  16.2269   2.49852   16.1639 
 H(PDBName=H18C,ResName=UNK,ResNum=1)  15.4382   3.74819   16.7763 
 C(PDBName=C19,ResName=UNK,ResNum=1)  16.2192   5.66224   15.036 
 H(PDBName=H19A,ResName=UNK,ResNum=1)  15.3979   5.94888   15.4877 
 H(PDBName=H19B,ResName=UNK,ResNum=1)  16.2641   6.07195   14.1489 
 H(PDBName=H19C,ResName=UNK,ResNum=1)  16.9966   5.93994   15.5632 
 C(PDBName=C20,ResName=UNK,ResNum=1)  13.1393   3.93663   14.2425 
 H(PDBName=H20,ResName=UNK,ResNum=1)  12.5882   3.48799   13.5371 
 C(PDBName=C21,ResName=UNK,ResNum=1)  12.7108   3.23008   15.4852 
 H(PDBName=H21A,ResName=UNK,ResNum=1)  13.0533   2.31096   15.475 
 H(PDBName=H21B,ResName=UNK,ResNum=1)  11.732    3.21252   15.5308 
 H(PDBName=H21C,ResName=UNK,ResNum=1)  13.0657   3.7012    16.268 
 C(PDBName=C22,ResName=UNK,ResNum=1)  12.7342   5.33444   14.1219 
 H(PDBName=H22A,ResName=UNK,ResNum=1)  13.1046   5.71201   13.296 
 H(PDBName=H22B,ResName=UNK,ResNum=1)  13.0704   5.83869   14.8918 
 H(PDBName=H22C,ResName=UNK,ResNum=1)  11.7563   5.39022   14.0977 
 Si(PDBName=Si,ResName=UNK,ResNum=1)  16.1891   8.03391   2.94371 
 C(PDBName=C1,ResName=UNK,ResNum=1)  15.6185   6.25221   7.009 
 C(PDBName=C2,ResName=UNK,ResNum=1)  16.6112   5.36354   7.4871 
 C(PDBName=C3,ResName=UNK,ResNum=1)  17.6902   4.95198   6.68651 
 H(PDBName=H3,ResName=UNK,ResNum=1)  17.7389   5.26236   5.79098 
 C(PDBName=C4,ResName=UNK,ResNum=1)  18.6864   4.11223   7.15267 
 C(PDBName=C5,ResName=UNK,ResNum=1)  19.7863   3.70158   6.33992 
 H(PDBName=H5,ResName=UNK,ResNum=1)  19.8432   4.00452   5.44047 
 C(PDBName=C6,ResName=UNK,ResNum=1)  20.7479   2.88868   6.82792 
 H(PDBName=H6,ResName=UNK,ResNum=1)  21.4664   2.61913   6.26718 
 C(PDBName=C7,ResName=UNK,ResNum=1)  20.6914   2.43071   8.17113 
 H(PDBName=H7,ResName=UNK,ResNum=1)  21.3789   1.86584   8.50327 
 C(PDBName=C8,ResName=UNK,ResNum=1)  19.6758   2.78868   8.97987 
 H(PDBName=H8,ResName=UNK,ResNum=1)  19.6545   2.46778   9.87354 
 C(PDBName=C9,ResName=UNK,ResNum=1)  18.6272   3.64532   8.51415 
 C(PDBName=C10,ResName=UNK,ResNum=1)  17.5622   4.02609   9.31002 
 H(PDBName=H10,ResName=UNK,ResNum=1)  17.5195   3.70136   10.2028 
 C(PDBName=C11,ResName=UNK,ResNum=1)  16.5398   4.87727   8.84762 
 C(PDBName=C12,ResName=UNK,ResNum=1)  15.7388   6.78274   5.68014 
 C(PDBName=C13,ResName=UNK,ResNum=1)  15.8828   7.26097   4.58258 
 C(PDBName=C14,ResName=UNK,ResNum=1)  16.0138   9.89854   3.1411 
 H(PDBName=H14,ResName=UNK,ResNum=1)  16.1812   10.3136   2.24764 
 C(PDBName=C15,ResName=UNK,ResNum=1)  17.0445   10.48     4.12497 
 H(PDBName=H15A,ResName=UNK,ResNum=1)  16.9592   10.0305   4.99271 
 H(PDBName=H15B,ResName=UNK,ResNum=1)  17.9481   10.3397   3.7709 
 H(PDBName=H15C,ResName=UNK,ResNum=1)  16.8838   11.4408   4.23785 
 C(PDBName=C16,ResName=UNK,ResNum=1)  14.5937   10.2853   3.56988 
 H(PDBName=H16A,ResName=UNK,ResNum=1)  14.5377   11.2584   3.67532 
 H(PDBName=H16B,ResName=UNK,ResNum=1)  13.9557   9.99453   2.88581 
 H(PDBName=H16C,ResName=UNK,ResNum=1)  14.3787   9.85097   4.42074 
 C(PDBName=C17,ResName=UNK,ResNum=1)  14.8622   7.38831   1.78315 
 H(PDBName=H17,ResName=UNK,ResNum=1)  13.9883   7.62387   2.20951 
 C(PDBName=C18,ResName=UNK,ResNum=1)  14.8473   8.05565   0.40696 
 H(PDBName=H18A,ResName=UNK,ResNum=1)  14.0402   7.78342  -0.07791 
 H(PDBName=H18B,ResName=UNK,ResNum=1)  14.8508   9.0285    0.51441 
 H(PDBName=H18C,ResName=UNK,ResNum=1)  15.6405   7.77878  -0.09808 
 C(PDBName=C19,ResName=UNK,ResNum=1)  14.8595   5.86572   1.64221 
 H(PDBName=H19A,ResName=UNK,ResNum=1)  15.6808   5.57808   1.19052 
 H(PDBName=H19B,ResName=UNK,ResNum=1)  14.8146   5.45501   2.52936 
 H(PDBName=H19C,ResName=UNK,ResNum=1)  14.0822   5.58803   1.11509 
 C(PDBName=C20,ResName=UNK,ResNum=1)  17.9394   7.59133   2.43578 
 H(PDBName=H20,ResName=UNK,ResNum=1)  18.4905   8.03897   3.1412 
 C(PDBName=C21,ResName=UNK,ResNum=1)  18.3679   8.29788   1.19302 
 H(PDBName=H21A,ResName=UNK,ResNum=1)  18.0244   9.21606   1.20337 
 H(PDBName=H21B,ResName=UNK,ResNum=1)  19.3467   8.31444   1.14745 
 H(PDBName=H21C,ResName=UNK,ResNum=1)  18.013    7.82676   0.41024 
 C(PDBName=C22,ResName=UNK,ResNum=1)  18.3436   6.19358   2.55643 
 H(PDBName=H22A,ResName=UNK,ResNum=1)  17.974    5.81495   3.38224 
 H(PDBName=H22B,ResName=UNK,ResNum=1)  18.0073   5.68833   1.78652 
 H(PDBName=H22C,ResName=UNK,ResNum=1)  19.3224   6.13674   2.58052 
 
 NAtoms=    200 NQM=        0 NQMF=       0 NMMI=    200 NMMIF=      0
                NMic=       0 NMicF=      0.
                    Isotopes and Nuclear Properties:
 (Nuclear quadrupole moments (NQMom) in fm**2, nuclear magnetic moments (NMagM)
  in nuclear magnetons)

  Atom         1           2           3           4           5           6           7           8           9          10
 IAtWgt=          28          12          12          12           1          12          12           1          12           1
 AtmWgt=  27.9769284  12.0000000  12.0000000  12.0000000   1.0078250  12.0000000  12.0000000   1.0078250  12.0000000   1.0078250
 NucSpn=           0           0           0           0           1           0           0           1           0           1
 AtZEff=   0.0000000   0.0000000   0.0000000   0.0000000   0.0000000   0.0000000   0.0000000   0.0000000   0.0000000   0.0000000
 NQMom=    0.0000000   0.0000000   0.0000000   0.0000000   0.0000000   0.0000000   0.0000000   0.0000000   0.0000000   0.0000000
 NMagM=    0.0000000   0.0000000   0.0000000   0.0000000   2.7928460   0.0000000   0.0000000   2.7928460   0.0000000   2.7928460

  Atom        11          12          13          14          15          16          17          18          19          20
 IAtWgt=          12           1          12           1          12          12           1          12          12          12
 AtmWgt=  12.0000000   1.0078250  12.0000000   1.0078250  12.0000000  12.0000000   1.0078250  12.0000000  12.0000000  12.0000000
 NucSpn=           0           1           0           1           0           0           1           0           0           0
 AtZEff=   0.0000000   0.0000000   0.0000000   0.0000000   0.0000000   0.0000000   0.0000000   0.0000000   0.0000000   0.0000000
 NQMom=    0.0000000   0.0000000   0.0000000   0.0000000   0.0000000   0.0000000   0.0000000   0.0000000   0.0000000   0.0000000
 NMagM=    0.0000000   2.7928460   0.0000000   2.7928460   0.0000000   0.0000000   2.7928460   0.0000000   0.0000000   0.0000000

  Atom        21          22          23          24          25          26          27          28          29          30
 IAtWgt=          12           1          12           1           1           1          12           1           1           1
 AtmWgt=  12.0000000   1.0078250  12.0000000   1.0078250   1.0078250   1.0078250  12.0000000   1.0078250   1.0078250   1.0078250
 NucSpn=           0           1           0           1           1           1           0           1           1           1
 AtZEff=   0.0000000   0.0000000   0.0000000   0.0000000   0.0000000   0.0000000   0.0000000   0.0000000   0.0000000   0.0000000
 NQMom=    0.0000000   0.0000000   0.0000000   0.0000000   0.0000000   0.0000000   0.0000000   0.0000000   0.0000000   0.0000000
 NMagM=    0.0000000   2.7928460   0.0000000   2.7928460   2.7928460   2.7928460   0.0000000   2.7928460   2.7928460   2.7928460

  Atom        31          32          33          34          35          36          37          38          39          40
 IAtWgt=          12           1          12           1           1           1          12           1           1           1
 AtmWgt=  12.0000000   1.0078250  12.0000000   1.0078250   1.0078250   1.0078250  12.0000000   1.0078250   1.0078250   1.0078250
 NucSpn=           0           1           0           1           1           1           0           1           1           1
 AtZEff=   0.0000000   0.0000000   0.0000000   0.0000000   0.0000000   0.0000000   0.0000000   0.0000000   0.0000000   0.0000000
 NQMom=    0.0000000   0.0000000   0.0000000   0.0000000   0.0000000   0.0000000   0.0000000   0.0000000   0.0000000   0.0000000
 NMagM=    0.0000000   2.7928460   0.0000000   2.7928460   2.7928460   2.7928460   0.0000000   2.7928460   2.7928460   2.7928460

  Atom        41          42          43          44          45          46          47          48          49          50
 IAtWgt=          12           1          12           1           1           1          12           1           1           1
 AtmWgt=  12.0000000   1.0078250  12.0000000   1.0078250   1.0078250   1.0078250  12.0000000   1.0078250   1.0078250   1.0078250
 NucSpn=           0           1           0           1           1           1           0           1           1           1
 AtZEff=   0.0000000   0.0000000   0.0000000   0.0000000   0.0000000   0.0000000   0.0000000   0.0000000   0.0000000   0.0000000
 NQMom=    0.0000000   0.0000000   0.0000000   0.0000000   0.0000000   0.0000000   0.0000000   0.0000000   0.0000000   0.0000000
 NMagM=    0.0000000   2.7928460   0.0000000   2.7928460   2.7928460   2.7928460   0.0000000   2.7928460   2.7928460   2.7928460

  Atom        51          52          53          54          55          56          57          58          59          60
 IAtWgt=          28          12          12          12           1          12          12           1          12           1
 AtmWgt=  27.9769284  12.0000000  12.0000000  12.0000000   1.0078250  12.0000000  12.0000000   1.0078250  12.0000000   1.0078250
 NucSpn=           0           0           0           0           1           0           0           1           0           1
 AtZEff=   0.0000000   0.0000000   0.0000000   0.0000000   0.0000000   0.0000000   0.0000000   0.0000000   0.0000000   0.0000000
 NQMom=    0.0000000   0.0000000   0.0000000   0.0000000   0.0000000   0.0000000   0.0000000   0.0000000   0.0000000   0.0000000
 NMagM=    0.0000000   0.0000000   0.0000000   0.0000000   2.7928460   0.0000000   0.0000000   2.7928460   0.0000000   2.7928460

  Atom        61          62          63          64          65          66          67          68          69          70
 IAtWgt=          12           1          12           1          12          12           1          12          12          12
 AtmWgt=  12.0000000   1.0078250  12.0000000   1.0078250  12.0000000  12.0000000   1.0078250  12.0000000  12.0000000  12.0000000
 NucSpn=           0           1           0           1           0           0           1           0           0           0
 AtZEff=   0.0000000   0.0000000   0.0000000   0.0000000   0.0000000   0.0000000   0.0000000   0.0000000   0.0000000   0.0000000
 NQMom=    0.0000000   0.0000000   0.0000000   0.0000000   0.0000000   0.0000000   0.0000000   0.0000000   0.0000000   0.0000000
 NMagM=    0.0000000   2.7928460   0.0000000   2.7928460   0.0000000   0.0000000   2.7928460   0.0000000   0.0000000   0.0000000

  Atom        71          72          73          74          75          76          77          78          79          80
 IAtWgt=          12           1          12           1           1           1          12           1           1           1
 AtmWgt=  12.0000000   1.0078250  12.0000000   1.0078250   1.0078250   1.0078250  12.0000000   1.0078250   1.0078250   1.0078250
 NucSpn=           0           1           0           1           1           1           0           1           1           1
 AtZEff=   0.0000000   0.0000000   0.0000000   0.0000000   0.0000000   0.0000000   0.0000000   0.0000000   0.0000000   0.0000000
 NQMom=    0.0000000   0.0000000   0.0000000   0.0000000   0.0000000   0.0000000   0.0000000   0.0000000   0.0000000   0.0000000
 NMagM=    0.0000000   2.7928460   0.0000000   2.7928460   2.7928460   2.7928460   0.0000000   2.7928460   2.7928460   2.7928460

  Atom        81          82          83          84          85          86          87          88          89          90
 IAtWgt=          12           1          12           1           1           1          12           1           1           1
 AtmWgt=  12.0000000   1.0078250  12.0000000   1.0078250   1.0078250   1.0078250  12.0000000   1.0078250   1.0078250   1.0078250
 NucSpn=           0           1           0           1           1           1           0           1           1           1
 AtZEff=   0.0000000   0.0000000   0.0000000   0.0000000   0.0000000   0.0000000   0.0000000   0.0000000   0.0000000   0.0000000
 NQMom=    0.0000000   0.0000000   0.0000000   0.0000000   0.0000000   0.0000000   0.0000000   0.0000000   0.0000000   0.0000000
 NMagM=    0.0000000   2.7928460   0.0000000   2.7928460   2.7928460   2.7928460   0.0000000   2.7928460   2.7928460   2.7928460

  Atom        91          92          93          94          95          96          97          98          99         100
 IAtWgt=          12           1          12           1           1           1          12           1           1           1
 AtmWgt=  12.0000000   1.0078250  12.0000000   1.0078250   1.0078250   1.0078250  12.0000000   1.0078250   1.0078250   1.0078250
 NucSpn=           0           1           0           1           1           1           0           1           1           1
 AtZEff=   0.0000000   0.0000000   0.0000000   0.0000000   0.0000000   0.0000000   0.0000000   0.0000000   0.0000000   0.0000000
 NQMom=    0.0000000   0.0000000   0.0000000   0.0000000   0.0000000   0.0000000   0.0000000   0.0000000   0.0000000   0.0000000
 NMagM=    0.0000000   2.7928460   0.0000000   2.7928460   2.7928460   2.7928460   0.0000000   2.7928460   2.7928460   2.7928460

  Atom       101         102         103         104         105         106         107         108         109         110
 IAtWgt=          28          12          12          12           1          12          12           1          12           1
 AtmWgt=  27.9769284  12.0000000  12.0000000  12.0000000   1.0078250  12.0000000  12.0000000   1.0078250  12.0000000   1.0078250
 NucSpn=           0           0           0           0           1           0           0           1           0           1
 AtZEff=   0.0000000   0.0000000   0.0000000   0.0000000   0.0000000   0.0000000   0.0000000   0.0000000   0.0000000   0.0000000
 NQMom=    0.0000000   0.0000000   0.0000000   0.0000000   0.0000000   0.0000000   0.0000000   0.0000000   0.0000000   0.0000000
 NMagM=    0.0000000   0.0000000   0.0000000   0.0000000   2.7928460   0.0000000   0.0000000   2.7928460   0.0000000   2.7928460

  Atom       111         112         113         114         115         116         117         118         119         120
 IAtWgt=          12           1          12           1          12          12           1          12          12          12
 AtmWgt=  12.0000000   1.0078250  12.0000000   1.0078250  12.0000000  12.0000000   1.0078250  12.0000000  12.0000000  12.0000000
 NucSpn=           0           1           0           1           0           0           1           0           0           0
 AtZEff=   0.0000000   0.0000000   0.0000000   0.0000000   0.0000000   0.0000000   0.0000000   0.0000000   0.0000000   0.0000000
 NQMom=    0.0000000   0.0000000   0.0000000   0.0000000   0.0000000   0.0000000   0.0000000   0.0000000   0.0000000   0.0000000
 NMagM=    0.0000000   2.7928460   0.0000000   2.7928460   0.0000000   0.0000000   2.7928460   0.0000000   0.0000000   0.0000000

  Atom       121         122         123         124         125         126         127         128         129         130
 IAtWgt=          12           1          12           1           1           1          12           1           1           1
 AtmWgt=  12.0000000   1.0078250  12.0000000   1.0078250   1.0078250   1.0078250  12.0000000   1.0078250   1.0078250   1.0078250
 NucSpn=           0           1           0           1           1           1           0           1           1           1
 AtZEff=   0.0000000   0.0000000   0.0000000   0.0000000   0.0000000   0.0000000   0.0000000   0.0000000   0.0000000   0.0000000
 NQMom=    0.0000000   0.0000000   0.0000000   0.0000000   0.0000000   0.0000000   0.0000000   0.0000000   0.0000000   0.0000000
 NMagM=    0.0000000   2.7928460   0.0000000   2.7928460   2.7928460   2.7928460   0.0000000   2.7928460   2.7928460   2.7928460

  Atom       131         132         133         134         135         136         137         138         139         140
 IAtWgt=          12           1          12           1           1           1          12           1           1           1
 AtmWgt=  12.0000000   1.0078250  12.0000000   1.0078250   1.0078250   1.0078250  12.0000000   1.0078250   1.0078250   1.0078250
 NucSpn=           0           1           0           1           1           1           0           1           1           1
 AtZEff=   0.0000000   0.0000000   0.0000000   0.0000000   0.0000000   0.0000000   0.0000000   0.0000000   0.0000000   0.0000000
 NQMom=    0.0000000   0.0000000   0.0000000   0.0000000   0.0000000   0.0000000   0.0000000   0.0000000   0.0000000   0.0000000
 NMagM=    0.0000000   2.7928460   0.0000000   2.7928460   2.7928460   2.7928460   0.0000000   2.7928460   2.7928460   2.7928460

  Atom       141         142         143         144         145         146         147         148         149         150
 IAtWgt=          12           1          12           1           1           1          12           1           1           1
 AtmWgt=  12.0000000   1.0078250  12.0000000   1.0078250   1.0078250   1.0078250  12.0000000   1.0078250   1.0078250   1.0078250
 NucSpn=           0           1           0           1           1           1           0           1           1           1
 AtZEff=   0.0000000   0.0000000   0.0000000   0.0000000   0.0000000   0.0000000   0.0000000   0.0000000   0.0000000   0.0000000
 NQMom=    0.0000000   0.0000000   0.0000000   0.0000000   0.0000000   0.0000000   0.0000000   0.0000000   0.0000000   0.0000000
 NMagM=    0.0000000   2.7928460   0.0000000   2.7928460   2.7928460   2.7928460   0.0000000   2.7928460   2.7928460   2.7928460

  Atom       151         152         153         154         155         156         157         158         159         160
 IAtWgt=          28          12          12          12           1          12          12           1          12           1
 AtmWgt=  27.9769284  12.0000000  12.0000000  12.0000000   1.0078250  12.0000000  12.0000000   1.0078250  12.0000000   1.0078250
 NucSpn=           0           0           0           0           1           0           0           1           0           1
 AtZEff=   0.0000000   0.0000000   0.0000000   0.0000000   0.0000000   0.0000000   0.0000000   0.0000000   0.0000000   0.0000000
 NQMom=    0.0000000   0.0000000   0.0000000   0.0000000   0.0000000   0.0000000   0.0000000   0.0000000   0.0000000   0.0000000
 NMagM=    0.0000000   0.0000000   0.0000000   0.0000000   2.7928460   0.0000000   0.0000000   2.7928460   0.0000000   2.7928460

  Atom       161         162         163         164         165         166         167         168         169         170
 IAtWgt=          12           1          12           1          12          12           1          12          12          12
 AtmWgt=  12.0000000   1.0078250  12.0000000   1.0078250  12.0000000  12.0000000   1.0078250  12.0000000  12.0000000  12.0000000
 NucSpn=           0           1           0           1           0           0           1           0           0           0
 AtZEff=   0.0000000   0.0000000   0.0000000   0.0000000   0.0000000   0.0000000   0.0000000   0.0000000   0.0000000   0.0000000
 NQMom=    0.0000000   0.0000000   0.0000000   0.0000000   0.0000000   0.0000000   0.0000000   0.0000000   0.0000000   0.0000000
 NMagM=    0.0000000   2.7928460   0.0000000   2.7928460   0.0000000   0.0000000   2.7928460   0.0000000   0.0000000   0.0000000

  Atom       171         172         173         174         175         176         177         178         179         180
 IAtWgt=          12           1          12           1           1           1          12           1           1           1
 AtmWgt=  12.0000000   1.0078250  12.0000000   1.0078250   1.0078250   1.0078250  12.0000000   1.0078250   1.0078250   1.0078250
 NucSpn=           0           1           0           1           1           1           0           1           1           1
 AtZEff=   0.0000000   0.0000000   0.0000000   0.0000000   0.0000000   0.0000000   0.0000000   0.0000000   0.0000000   0.0000000
 NQMom=    0.0000000   0.0000000   0.0000000   0.0000000   0.0000000   0.0000000   0.0000000   0.0000000   0.0000000   0.0000000
 NMagM=    0.0000000   2.7928460   0.0000000   2.7928460   2.7928460   2.7928460   0.0000000   2.7928460   2.7928460   2.7928460

  Atom       181         182         183         184         185         186         187         188         189         190
 IAtWgt=          12           1          12           1           1           1          12           1           1           1
 AtmWgt=  12.0000000   1.0078250  12.0000000   1.0078250   1.0078250   1.0078250  12.0000000   1.0078250   1.0078250   1.0078250
 NucSpn=           0           1           0           1           1           1           0           1           1           1
 AtZEff=   0.0000000   0.0000000   0.0000000   0.0000000   0.0000000   0.0000000   0.0000000   0.0000000   0.0000000   0.0000000
 NQMom=    0.0000000   0.0000000   0.0000000   0.0000000   0.0000000   0.0000000   0.0000000   0.0000000   0.0000000   0.0000000
 NMagM=    0.0000000   2.7928460   0.0000000   2.7928460   2.7928460   2.7928460   0.0000000   2.7928460   2.7928460   2.7928460

  Atom       191         192         193         194         195         196         197         198         199         200
 IAtWgt=          12           1          12           1           1           1          12           1           1           1
 AtmWgt=  12.0000000   1.0078250  12.0000000   1.0078250   1.0078250   1.0078250  12.0000000   1.0078250   1.0078250   1.0078250
 NucSpn=           0           1           0           1           1           1           0           1           1           1
 AtZEff=   0.0000000   0.0000000   0.0000000   0.0000000   0.0000000   0.0000000   0.0000000   0.0000000   0.0000000   0.0000000
 NQMom=    0.0000000   0.0000000   0.0000000   0.0000000   0.0000000   0.0000000   0.0000000   0.0000000   0.0000000   0.0000000
 NMagM=    0.0000000   2.7928460   0.0000000   2.7928460   2.7928460   2.7928460   0.0000000   2.7928460   2.7928460   2.7928460
 Residue   1 PDB Number     1_0 UNK charge    0.00000000 ave dist        0.000
 Leave Link  101 at Fri Feb  1 21:50:32 2013, MaxMem= 1073741824 cpu:       0.9
 (Enter /apps/gaussian/g09_c01/g09/l202.exe)
 Symmetry turned off by external request.
 Stoichiometry    C88H108Si4
 Framework group  C1[X(C88H108Si4)]
 Deg. of freedom   594
 Full point group                 C1      NOp   1
                          Input orientation:                          
 ---------------------------------------------------------------------
 Center     Atomic      Atomic             Coordinates (Angstroms)
 Number     Number       Type             X           Y           Z
 ---------------------------------------------------------------------
      1         14           0        7.324622    3.494057   13.734540
      2          6           0        7.895200    5.274755    9.669250
      3          6           0        6.902481    6.163429    9.191150
      4          6           0        5.822514    6.575043    9.991839
      5          1           0        5.774883    6.265600   10.887273
      6          6           0        4.827323    7.414731    9.525582
      7          6           0        3.727446    7.826388   10.338336
      8          1           0        3.670457    7.522450   11.237785
      9          6           0        2.765829    8.639283    9.850334
     10          1           0        2.047264    8.907831   10.411066
     11          6           0        2.822281    9.096259    8.507123
     12          1           0        2.134840    9.662127    8.174980
     13          6           0        3.837914    8.738285    7.698377
     14          1           0        3.859170    9.059184    6.804715
     15          6           0        4.886485    7.881647    8.164099
     16          6           0        5.950572    7.501932    7.368337
     17          1           0        5.994204    7.825606    6.475454
     18          6           0        6.972875    6.649754    7.830727
     19          6           0        7.774897    4.744225   10.998113
     20          6           0        7.630909    4.265999   12.095672
     21          6           0        7.499851    1.628423   13.537146
     22          1           0        7.331579    1.214442   14.430715
     23          6           0        6.468229    1.047033   12.553383
     24          1           0        6.554478    1.496460   11.685536
     25          1           0        5.565627    1.187303   12.907355
     26          1           0        6.629925    0.087171   12.440401
     27          6           0        8.919967    1.241712   13.108371
     28          1           0        8.976011    0.268591   13.002933
     29          1           0        9.557995    1.532438   13.792439
     30          1           0        9.133966    1.676045   12.257614
     31          6           0        8.651520    4.139651   14.895107
     32          1           0        9.524416    3.903152   14.468839
     33          6           0        8.665488    3.472364   16.271401
     34          1           0        9.472455    3.743598   16.756263
     35          1           0        8.661897    2.498519   16.163946
     36          1           0        7.873196    3.748188   16.776335
     37          6           0        8.654191    5.662241   15.036047
     38          1           0        7.832916    5.948884   15.487729
     39          1           0        8.699067    6.071954   14.148887
     40          1           0        9.431580    5.939937   15.563164
     41          6           0        5.574349    3.936634   14.242474
     42          1           0        5.023189    3.487993   13.537053
     43          6           0        5.145792    3.230079   15.485239
     44          1           0        5.488258    2.310959   15.474981
     45          1           0        4.166996    3.212523   15.530797
     46          1           0        5.500689    3.701203   16.268019
     47          6           0        5.169171    5.334439   14.121928
     48          1           0        5.539637    5.712011   13.296012
     49          1           0        5.505438    5.838685   14.891831
     50          1           0        4.191306    5.390222   14.097732
     51         14           0        8.624116    8.033907    2.943714
     52          6           0        8.053483    6.252211    7.009000
     53          6           0        9.046202    5.363536    7.487101
     54          6           0       10.125175    4.951977    6.686513
     55          1           0       10.173854    5.262364    5.790982
     56          6           0       11.121360    4.112234    7.152669
     57          6           0       12.221292    3.701576    6.339919
     58          1           0       12.278226    4.004515    5.440466
     59          6           0       13.182908    2.888681    6.827921
     60          1           0       13.901418    2.619134    6.267184
     61          6           0       13.126402    2.430707    8.171128
     62          1           0       13.813898    1.865837    8.503275
     63          6           0       12.110768    2.788681    8.979874
     64          1           0       12.089513    2.467782    9.873536
     65          6           0       11.062198    3.645319    8.514152
     66          6           0        9.997172    4.026086    9.310019
     67          1           0        9.954479    3.701360   10.202797
     68          6           0        8.974815    4.877265    8.847624
     69          6           0        8.173786    6.782740    5.680137
     70          6           0        8.317774    7.260967    4.582578
     71          6           0        8.448832    9.898543    3.141105
     72          1           0        8.616165   10.313576    2.247640
     73          6           0        9.479460   10.479987    4.124968
     74          1           0        9.394205   10.030505    4.992714
     75          1           0       10.383056   10.339662    3.770896
     76          1           0        9.318812   11.440793    4.237854
     77          6           0        7.028715   10.285254    3.569879
     78          1           0        6.972671   11.258375    3.675318
     79          1           0        6.390688    9.994528    2.885811
     80          1           0        6.813723    9.850974    4.420738
     81          6           0        7.297218    7.388313    1.783147
     82          1           0        6.423273    7.623867    2.209513
     83          6           0        7.282255    8.055654    0.406955
     84          1           0        6.475235    7.783422   -0.077912
     85          1           0        7.285792    9.028500    0.514406
     86          1           0        8.075486    7.778777   -0.098085
     87          6           0        7.294546    5.865723    1.642207
     88          1           0        8.115767    5.578082    1.190522
     89          1           0        7.249615    5.455012    2.529364
     90          1           0        6.517157    5.588027    1.115090
     91          6           0       10.374388    7.591330    2.435781
     92          1           0       10.925493    8.038973    3.141197
     93          6           0       10.802945    8.297884    1.193015
     94          1           0       10.459431    9.216061    1.203371
     95          1           0       11.781687    8.314442    1.147454
     96          1           0       10.448049    7.826761    0.410236
     97          6           0       10.778573    6.193579    2.556428
     98          1           0       10.409046    5.814955    3.382238
     99          1           0       10.442252    5.688334    1.786520
    100          1           0       11.757376    6.136743    2.580518
    101         14           0       14.889600    3.494060   13.734500
    102          6           0       15.460200    5.274750    9.669250
    103          6           0       14.467500    6.163430    9.191150
    104          6           0       13.387500    6.575040    9.991840
    105          1           0       13.339900    6.265600   10.887300
    106          6           0       12.392300    7.414730    9.525580
    107          6           0       11.292400    7.826390   10.338300
    108          1           0       11.235500    7.522450   11.237800
    109          6           0       10.330800    8.639280    9.850330
    110          1           0        9.612260    8.907830   10.411100
    111          6           0       10.387300    9.096260    8.507120
    112          1           0        9.699840    9.662130    8.174980
    113          6           0       11.402900    8.738280    7.698380
    114          1           0       11.424200    9.059180    6.804710
    115          6           0       12.451500    7.881650    8.164100
    116          6           0       13.515600    7.501930    7.368340
    117          1           0       13.559200    7.825610    6.475450
    118          6           0       14.537900    6.649750    7.830730
    119          6           0       15.339900    4.744220   10.998100
    120          6           0       15.195900    4.266000   12.095700
    121          6           0       15.064900    1.628420   13.537100
    122          1           0       14.896600    1.214440   14.430700
    123          6           0       14.033200    1.047030   12.553400
    124          1           0       14.119500    1.496460   11.685500
    125          1           0       13.130600    1.187300   12.907400
    126          1           0       14.194900    0.087171   12.440400
    127          6           0       16.485000    1.241710   13.108400
    128          1           0       16.541000    0.268591   13.002900
    129          1           0       17.123000    1.532440   13.792400
    130          1           0       16.699000    1.676050   12.257600
    131          6           0       16.216500    4.139650   14.895100
    132          1           0       17.089400    3.903150   14.468800
    133          6           0       16.230500    3.472360   16.271400
    134          1           0       17.037500    3.743600   16.756300
    135          1           0       16.226900    2.498520   16.163900
    136          1           0       15.438200    3.748190   16.776300
    137          6           0       16.219200    5.662240   15.036000
    138          1           0       15.397900    5.948880   15.487700
    139          1           0       16.264100    6.071950   14.148900
    140          1           0       16.996600    5.939940   15.563200
    141          6           0       13.139300    3.936630   14.242500
    142          1           0       12.588200    3.487990   13.537100
    143          6           0       12.710800    3.230080   15.485200
    144          1           0       13.053300    2.310960   15.475000
    145          1           0       11.732000    3.212520   15.530800
    146          1           0       13.065700    3.701200   16.268000
    147          6           0       12.734200    5.334440   14.121900
    148          1           0       13.104600    5.712010   13.296000
    149          1           0       13.070400    5.838690   14.891800
    150          1           0       11.756300    5.390220   14.097700
    151         14           0       16.189100    8.033910    2.943710
    152          6           0       15.618500    6.252210    7.009000
    153          6           0       16.611200    5.363540    7.487100
    154          6           0       17.690200    4.951980    6.686510
    155          1           0       17.738900    5.262360    5.790980
    156          6           0       18.686400    4.112230    7.152670
    157          6           0       19.786300    3.701580    6.339920
    158          1           0       19.843200    4.004520    5.440470
    159          6           0       20.747900    2.888680    6.827920
    160          1           0       21.466400    2.619130    6.267180
    161          6           0       20.691400    2.430710    8.171130
    162          1           0       21.378900    1.865840    8.503270
    163          6           0       19.675800    2.788680    8.979870
    164          1           0       19.654500    2.467780    9.873540
    165          6           0       18.627200    3.645320    8.514150
    166          6           0       17.562200    4.026090    9.310020
    167          1           0       17.519500    3.701360   10.202800
    168          6           0       16.539800    4.877270    8.847620
    169          6           0       15.738800    6.782740    5.680140
    170          6           0       15.882800    7.260970    4.582580
    171          6           0       16.013800    9.898540    3.141100
    172          1           0       16.181200   10.313600    2.247640
    173          6           0       17.044500   10.480000    4.124970
    174          1           0       16.959200   10.030500    4.992710
    175          1           0       17.948100   10.339700    3.770900
    176          1           0       16.883800   11.440800    4.237850
    177          6           0       14.593700   10.285300    3.569880
    178          1           0       14.537700   11.258400    3.675320
    179          1           0       13.955700    9.994530    2.885810
    180          1           0       14.378700    9.850970    4.420740
    181          6           0       14.862200    7.388310    1.783150
    182          1           0       13.988300    7.623870    2.209510
    183          6           0       14.847300    8.055650    0.406955
    184          1           0       14.040200    7.783420   -0.077912
    185          1           0       14.850800    9.028500    0.514406
    186          1           0       15.640500    7.778780   -0.098085
    187          6           0       14.859500    5.865720    1.642210
    188          1           0       15.680800    5.578080    1.190520
    189          1           0       14.814600    5.455010    2.529360
    190          1           0       14.082200    5.588030    1.115090
    191          6           0       17.939400    7.591330    2.435780
    192          1           0       18.490500    8.038970    3.141200
    193          6           0       18.367900    8.297880    1.193020
    194          1           0       18.024400    9.216060    1.203370
    195          1           0       19.346700    8.314440    1.147450
    196          1           0       18.013000    7.826760    0.410236
    197          6           0       18.343600    6.193580    2.556430
    198          1           0       17.974000    5.814950    3.382240
    199          1           0       18.007300    5.688330    1.786520
    200          1           0       19.322400    6.136740    2.580520
 ---------------------------------------------------------------------
 Rotational constants (GHZ):      0.0178752      0.0151109      0.0092017
 Leave Link  202 at Fri Feb  1 21:50:32 2013, MaxMem= 1073741824 cpu:       0.3
 (Enter /apps/gaussian/g09_c01/g09/l301.exe)
 Standard basis: 6-31G(d,p) (6D, 7F)
 Ernie: Thresh=  0.10000D-02 Tol=  0.10000D-05 Strict=F.
 Integral buffers will be    131072 words long.
 Raffenetti 2 integral format.
 Two-electron integral symmetry is turned off.
  1936 basis functions,  3428 primitive gaussians,  1936 cartesian basis functions
   346 alpha electrons      346 beta electrons
       nuclear repulsion energy     18579.7308282082 Hartrees.
 IExCor=  402 DFT=T Ex+Corr=B3LYP ExCW=0 ScaHFX=  0.200000
 ScaDFX=  0.800000  0.720000  1.000000  0.810000 ScalE2=  1.000000  1.000000
 IRadAn=      0 IRanWt=     -1 IRanGd=            0 ICorTp=0
 NAtoms=  200 NActive=  200 NUniq=  200 SFac= 1.00D+00 NAtFMM=   60 NAOKFM=T Big=T
 Leave Link  301 at Fri Feb  1 21:50:32 2013, MaxMem= 1073741824 cpu:       0.8
 (Enter /apps/gaussian/g09_c01/g09/l302.exe)
 NPDir=0 NMtPBC=     1 NCelOv=     1 NCel=       1 NClECP=     1 NCelD=      1
         NCelK=      1 NCelE2=     1 NClLst=     1 CellRange=     0.0.
 One-electron integrals computed using PRISM.
 NBasis=  1936 RedAO= T  NBF=  1936
 NBsUse=  1936 1.00D-06 NBFU=  1936
 Precomputing XC quadrature grid using
 IXCGrd= 2 IRadAn=           0 IRanWt=          -1 IRanGd=           0 AccXCQ= 0.00D+00.
 NRdTot=   13058 NPtTot=     1672500 NUsed=     1766519 NTot=     1766551
 NSgBfM=  1351  1351  1351  1360  1360 NAtAll=   200   192.
 Leave Link  302 at Fri Feb  1 21:51:06 2013, MaxMem= 1073741824 cpu:     269.5
 (Enter /apps/gaussian/g09_c01/g09/l308.exe)
 Leave Link  308 at Fri Feb  1 21:51:08 2013, MaxMem= 1073741824 cpu:      11.5
 (Enter /apps/gaussian/g09_c01/g09/l303.exe)
 DipDrv:  MaxL=1.
 Leave Link  303 at Fri Feb  1 21:51:08 2013, MaxMem= 1073741824 cpu:       6.8
 (Enter /apps/gaussian/g09_c01/g09/l401.exe)
 Harris functional with IExCor=  402 diagonalized for initial guess.
 ExpMin= 7.78D-02 ExpMax= 1.61D+04 ExpMxC= 2.43D+03 IAcc=2 IRadAn=         4 AccDes= 0.00D+00
 HarFok:  IExCor=  402 AccDes= 0.00D+00 IRadAn=         4 IDoV= 1
 ScaDFX=  1.000000  1.000000  1.000000  1.000000
 FoFCou: FMM=F IPFlag=           0 FMFlag=      100000 FMFlg1=        2001
         NFxFlg=           0 DoJE=T BraDBF=F KetDBF=T FulRan=T
         Omega=  0.000000  0.000000  1.000000  0.000000  0.000000 ICntrl=     500 IOpCl=  0
         NMat0=    1 NMatS0=    1 NMatT0=    0 NMatD0=    1 NMtDS0=    0 NMtDT0=    0
         I1Cent=           4 NGrid=           0.
 Symmetry not used in FoFCou.
 Harris En= -4576.69886777238    
 Leave Link  401 at Fri Feb  1 21:51:45 2013, MaxMem= 1073741824 cpu:     287.3
 (Enter /apps/gaussian/g09_c01/g09/l502.exe)
 Closed shell SCF:
 Requested convergence on RMS density matrix=1.00D-08 within 128 cycles.
 Requested convergence on MAX density matrix=1.00D-06.
 Requested convergence on             energy=1.00D-06.
 No special actions if energy rises.
 Using DIIS extrapolation, IDIIS=  1040.
 Two-electron integral symmetry not used.
      1764706 words used for storage of precomputed grid.
 IEnd=    13054644 IEndB=    13054644 NGot=  1073741824 MDV=  1064453853
 LenX=  1064453853 LenY=  1060703821
 Fock matrices will be formed incrementally for  20 cycles.
 Integral accuracy reduced to 1.0D-05 until final iterations.

 Cycle   1  Pass 0  IDiag  1:
 FoFCou: FMM=T IPFlag=           0 FMFlag=      100000 FMFlg1=        2001
         NFxFlg=           0 DoJE=F BraDBF=F KetDBF=F FulRan=T
         Omega=  0.000000  0.000000  1.000000  0.000000  0.000000 ICntrl=       0 IOpCl=  0
         NMat0=    1 NMatS0=    1 NMatT0=    0 NMatD0=    1 NMtDS0=    0 NMtDT0=    0
         I1Cent=           0 NGrid=           0.
 Symmetry not used in FoFCou.
 FMM levels:  10  Number of levels for PrismC:   9
 E= -4571.74139659534    
 DIIS: error= 3.91D-02 at cycle   1 NSaved=   1.
 NSaved= 1 IEnMin= 1 EnMin= -4571.74139659534     IErMin= 1 ErrMin= 3.91D-02
 ErrMax= 3.91D-02 EMaxC= 1.00D-01 BMatC= 3.34D+00 BMatP= 3.34D+00
 IDIUse=3 WtCom= 6.09D-01 WtEn= 3.91D-01
 Coeff-Com:  0.100D+01
 Coeff-En:   0.100D+01
 Coeff:      0.100D+01
 Gap=     0.082 Goal=   None    Shift=    0.000
 GapD=    0.082 DampG=0.500 DampE=0.500 DampFc=0.2500 IDamp=-1.
 Damping current iteration by 2.50D-01
 RMSDP=2.34D-03 MaxDP=1.61D-01              OVMax= 1.95D-01

 Cycle   2  Pass 0  IDiag  1:
 RMSU=  3.92D-04    CP:  9.76D-01
 E= -4573.01629623384     Delta-E=       -1.274899638502 Rises=F Damp=T
 DIIS: error= 1.87D-02 at cycle   2 NSaved=   2.
 NSaved= 2 IEnMin= 2 EnMin= -4573.01629623384     IErMin= 2 ErrMin= 1.87D-02
 ErrMax= 1.87D-02 EMaxC= 1.00D-01 BMatC= 9.34D-01 BMatP= 3.34D+00
 IDIUse=3 WtCom= 8.13D-01 WtEn= 1.87D-01
 Coeff-Com: -0.991D+00 0.199D+01
 Coeff-En:   0.000D+00 0.100D+01
 Coeff:     -0.806D+00 0.181D+01
 Gap=     0.084 Goal=   None    Shift=    0.000
 RMSDP=1.13D-03 MaxDP=1.52D-01 DE=-1.27D+00 OVMax= 1.53D-01

 Cycle   3  Pass 0  IDiag  1:
 RMSU=  4.79D-04    CP:  9.15D-01  2.39D+00
 E= -4575.20450558364     Delta-E=       -2.188209349802 Rises=F Damp=F
 DIIS: error= 1.03D-02 at cycle   3 NSaved=   3.
 NSaved= 3 IEnMin= 3 EnMin= -4575.20450558364     IErMin= 3 ErrMin= 1.03D-02
 ErrMax= 1.03D-02 EMaxC= 1.00D-01 BMatC= 8.52D-02 BMatP= 9.34D-01
 IDIUse=3 WtCom= 8.97D-01 WtEn= 1.03D-01
 Coeff-Com: -0.352D+00 0.757D+00 0.595D+00
 Coeff-En:   0.000D+00 0.000D+00 0.100D+01
 Coeff:     -0.316D+00 0.679D+00 0.636D+00
 Gap=     0.073 Goal=   None    Shift=    0.000
 RMSDP=3.60D-04 MaxDP=3.57D-02 DE=-2.19D+00 OVMax= 1.09D-01

 Cycle   4  Pass 0  IDiag  1:
 RMSU=  2.22D-04    CP:  9.20D-01  2.31D+00  7.59D-01
 E= -4575.19102113752     Delta-E=        0.013484446121 Rises=F Damp=F
 DIIS: error= 1.03D-02 at cycle   4 NSaved=   4.
 NSaved= 4 IEnMin= 3 EnMin= -4575.20450558364     IErMin= 3 ErrMin= 1.03D-02
 ErrMax= 1.03D-02 EMaxC= 1.00D-01 BMatC= 9.77D-02 BMatP= 8.52D-02
 IDIUse=2 WtCom= 0.00D+00 WtEn= 1.00D+00
 Coeff-En:   0.000D+00 0.000D+00 0.525D+00 0.475D+00
 Coeff:      0.000D+00 0.000D+00 0.525D+00 0.475D+00
 Gap=     0.071 Goal=   None    Shift=    0.000
 RMSDP=2.08D-04 MaxDP=2.77D-02 DE= 1.35D-02 OVMax= 7.09D-02

 Cycle   5  Pass 0  IDiag  1:
 RMSU=  7.55D-05    CP:  9.21D-01  2.25D+00  8.40D-01  4.70D-01
 E= -4575.29269358388     Delta-E=       -0.101672446362 Rises=F Damp=F
 DIIS: error= 2.33D-03 at cycle   5 NSaved=   5.
 NSaved= 5 IEnMin= 5 EnMin= -4575.29269358388     IErMin= 5 ErrMin= 2.33D-03
 ErrMax= 2.33D-03 EMaxC= 1.00D-01 BMatC= 1.27D-02 BMatP= 8.52D-02
 IDIUse=3 WtCom= 9.77D-01 WtEn= 2.33D-02
 Coeff-Com: -0.182D-01 0.446D-01 0.256D+00 0.291D+00 0.426D+00
 Coeff-En:   0.000D+00 0.000D+00 0.000D+00 0.103D+00 0.897D+00
 Coeff:     -0.178D-01 0.435D-01 0.250D+00 0.287D+00 0.437D+00
 Gap=     0.069 Goal=   None    Shift=    0.000
 RMSDP=7.31D-05 MaxDP=1.35D-02 DE=-1.02D-01 OVMax= 1.83D-02

 Cycle   6  Pass 0  IDiag  1:
 RMSU=  2.40D-05    CP:  9.20D-01  2.29D+00  8.62D-01  4.96D-01  4.66D-01
 E= -4575.30467089997     Delta-E=       -0.011977316088 Rises=F Damp=F
 DIIS: error= 7.42D-04 at cycle   6 NSaved=   6.
 NSaved= 6 IEnMin= 6 EnMin= -4575.30467089997     IErMin= 6 ErrMin= 7.42D-04
 ErrMax= 7.42D-04 EMaxC= 1.00D-01 BMatC= 7.66D-04 BMatP= 1.27D-02
 IDIUse=3 WtCom= 9.93D-01 WtEn= 7.42D-03
 Coeff-Com: -0.349D-02 0.652D-02 0.100D+00 0.135D+00 0.273D+00 0.489D+00
 Coeff-En:   0.000D+00 0.000D+00 0.000D+00 0.000D+00 0.000D+00 0.100D+01
 Coeff:     -0.346D-02 0.647D-02 0.996D-01 0.134D+00 0.271D+00 0.492D+00
 Gap=     0.069 Goal=   None    Shift=    0.000
 RMSDP=1.95D-05 MaxDP=2.60D-03 DE=-1.20D-02 OVMax= 5.57D-03

 Cycle   7  Pass 0  IDiag  1:
 RMSU=  9.01D-06    CP:  9.20D-01  2.29D+00  8.58D-01  5.12D-01  5.22D-01
                    CP:  6.42D-01
 E= -4575.30547049084     Delta-E=       -0.000799590871 Rises=F Damp=F
 DIIS: error= 1.41D-04 at cycle   7 NSaved=   7.
 NSaved= 7 IEnMin= 7 EnMin= -4575.30547049084     IErMin= 7 ErrMin= 1.41D-04
 ErrMax= 1.41D-04 EMaxC= 1.00D-01 BMatC= 4.96D-05 BMatP= 7.66D-04
 IDIUse=3 WtCom= 9.99D-01 WtEn= 1.41D-03
 Coeff-Com: -0.520D-03-0.680D-05 0.294D-01 0.446D-01 0.104D+00 0.271D+00
 Coeff-Com:  0.552D+00
 Coeff-En:   0.000D+00 0.000D+00 0.000D+00 0.000D+00 0.000D+00 0.000D+00
 Coeff-En:   0.100D+01
 Coeff:     -0.520D-03-0.680D-05 0.294D-01 0.446D-01 0.104D+00 0.271D+00
 Coeff:      0.552D+00
 Gap=     0.069 Goal=   None    Shift=    0.000
 RMSDP=7.08D-06 MaxDP=6.56D-04 DE=-8.00D-04 OVMax= 1.82D-03

 Initial convergence to 1.0D-05 achieved.  Increase integral accuracy.
 Cycle   8  Pass 1  IDiag  1:
 E= -4575.30604495241     Delta-E=       -0.000574461563 Rises=F Damp=F
 DIIS: error= 1.03D-03 at cycle   1 NSaved=   1.
 NSaved= 1 IEnMin= 1 EnMin= -4575.30604495241     IErMin= 1 ErrMin= 1.03D-03
 ErrMax= 1.03D-03 EMaxC= 1.00D-01 BMatC= 2.69D-04 BMatP= 2.69D-04
 IDIUse=3 WtCom= 9.90D-01 WtEn= 1.03D-02
 Coeff-Com:  0.100D+01
 Coeff-En:   0.100D+01
 Coeff:      0.100D+01
 Gap=     0.069 Goal=   None    Shift=    0.000
 RMSDP=7.08D-06 MaxDP=6.56D-04 DE=-5.74D-04 OVMax= 3.70D-03

 Cycle   9  Pass 1  IDiag  1:
 RMSU=  2.19D-04    CP:  9.99D-01
 E= -4575.30621855352     Delta-E=       -0.000173601118 Rises=F Damp=F
 DIIS: error= 1.56D-04 at cycle   2 NSaved=   2.
 NSaved= 2 IEnMin= 2 EnMin= -4575.30621855352     IErMin= 2 ErrMin= 1.56D-04
 ErrMax= 1.56D-04 EMaxC= 1.00D-01 BMatC= 2.65D-05 BMatP= 2.69D-04
 IDIUse=3 WtCom= 9.98D-01 WtEn= 1.56D-03
 Coeff-Com:  0.112D+00 0.888D+00
 Coeff-En:   0.000D+00 0.100D+01
 Coeff:      0.112D+00 0.888D+00
 Gap=     0.069 Goal=   None    Shift=    0.000
 RMSDP=1.17D-05 MaxDP=1.72D-03 DE=-1.74D-04 OVMax= 9.60D-03

 Cycle  10  Pass 1  IDiag  1:
 RMSU=  8.08D-06    CP:  9.99D-01  1.01D+00
 E= -4575.30606343016     Delta-E=        0.000155123365 Rises=F Damp=F
 DIIS: error= 4.08D-04 at cycle   3 NSaved=   3.
 NSaved= 3 IEnMin= 2 EnMin= -4575.30621855352     IErMin= 2 ErrMin= 1.56D-04
 ErrMax= 4.08D-04 EMaxC= 1.00D-01 BMatC= 1.55D-04 BMatP= 2.65D-05
 IDIUse=3 WtCom= 3.31D-01 WtEn= 6.69D-01
 Coeff-Com:  0.987D-03 0.710D+00 0.289D+00
 Coeff-En:   0.000D+00 0.785D+00 0.215D+00
 Coeff:      0.327D-03 0.760D+00 0.240D+00
 Gap=     0.069 Goal=   None    Shift=    0.000
 RMSDP=6.79D-06 MaxDP=1.02D-03 DE= 1.55D-04 OVMax= 5.95D-03

 Cycle  11  Pass 1  IDiag  1:
 RMSU=  9.13D-07    CP:  9.99D-01  1.01D+00  4.17D-01
 E= -4575.30624296465     Delta-E=       -0.000179534494 Rises=F Damp=F
 DIIS: error= 6.31D-05 at cycle   4 NSaved=   4.
 NSaved= 4 IEnMin= 4 EnMin= -4575.30624296465     IErMin= 4 ErrMin= 6.31D-05
 ErrMax= 6.31D-05 EMaxC= 1.00D-01 BMatC= 5.91D-06 BMatP= 2.65D-05
 IDIUse=1 WtCom= 1.00D+00 WtEn= 0.00D+00
 Coeff-Com: -0.323D-02 0.437D+00 0.946D-01 0.471D+00
 Coeff:     -0.323D-02 0.437D+00 0.946D-01 0.471D+00
 Gap=     0.069 Goal=   None    Shift=    0.000
 RMSDP=1.53D-06 MaxDP=1.96D-04 DE=-1.80D-04 OVMax= 1.02D-03

 Cycle  12  Pass 1  IDiag  1:
 RMSU=  3.04D-07    CP:  9.99D-01  1.01D+00  2.96D-01  6.10D-01
 E= -4575.30624956465     Delta-E=       -0.000006599999 Rises=F Damp=F
 DIIS: error= 4.70D-06 at cycle   5 NSaved=   5.
 NSaved= 5 IEnMin= 5 EnMin= -4575.30624956465     IErMin= 5 ErrMin= 4.70D-06
 ErrMax= 4.70D-06 EMaxC= 1.00D-01 BMatC= 4.59D-08 BMatP= 5.91D-06
 IDIUse=1 WtCom= 1.00D+00 WtEn= 0.00D+00
 Coeff-Com: -0.207D-02 0.265D+00 0.544D-01 0.301D+00 0.382D+00
 Coeff:     -0.207D-02 0.265D+00 0.544D-01 0.301D+00 0.382D+00
 Gap=     0.069 Goal=   None    Shift=    0.000
 RMSDP=1.78D-07 MaxDP=1.89D-05 DE=-6.60D-06 OVMax= 1.31D-04

 Cycle  13  Pass 1  IDiag  1:
 RMSU=  1.08D-07    CP:  9.99D-01  1.01D+00  2.95D-01  6.24D-01  7.97D-01
 E= -4575.30624961047     Delta-E=       -0.000000045817 Rises=F Damp=F
 DIIS: error= 2.65D-06 at cycle   6 NSaved=   6.
 NSaved= 6 IEnMin= 6 EnMin= -4575.30624961047     IErMin= 6 ErrMin= 2.65D-06
 ErrMax= 2.65D-06 EMaxC= 1.00D-01 BMatC= 5.87D-09 BMatP= 4.59D-08
 IDIUse=1 WtCom= 1.00D+00 WtEn= 0.00D+00
 Coeff-Com: -0.100D-02 0.125D+00 0.249D-01 0.145D+00 0.267D+00 0.439D+00
 Coeff:     -0.100D-02 0.125D+00 0.249D-01 0.145D+00 0.267D+00 0.439D+00
 Gap=     0.069 Goal=   None    Shift=    0.000
 RMSDP=7.58D-08 MaxDP=1.10D-05 DE=-4.58D-08 OVMax= 7.17D-05

 Cycle  14  Pass 1  IDiag  1:
 RMSU=  3.99D-08    CP:  9.99D-01  1.01D+00  2.95D-01  6.23D-01  8.40D-01
                    CP:  6.93D-01
 E= -4575.30624961575     Delta-E=       -0.000000005286 Rises=F Damp=F
 DIIS: error= 1.38D-06 at cycle   7 NSaved=   7.
 NSaved= 7 IEnMin= 7 EnMin= -4575.30624961575     IErMin= 7 ErrMin= 1.38D-06
 ErrMax= 1.38D-06 EMaxC= 1.00D-01 BMatC= 1.79D-09 BMatP= 5.87D-09
 IDIUse=1 WtCom= 1.00D+00 WtEn= 0.00D+00
 Coeff-Com: -0.249D-03 0.294D-01 0.555D-02 0.355D-01 0.114D+00 0.361D+00
 Coeff-Com:  0.455D+00
 Coeff:     -0.249D-03 0.294D-01 0.555D-02 0.355D-01 0.114D+00 0.361D+00
 Coeff:      0.455D+00
 Gap=     0.069 Goal=   None    Shift=    0.000
 RMSDP=3.37D-08 MaxDP=4.59D-06 DE=-5.29D-09 OVMax= 2.90D-05

 Cycle  15  Pass 1  IDiag  1:
 RMSU=  1.15D-08    CP:  9.99D-01  1.01D+00  2.95D-01  6.24D-01  8.42D-01
                    CP:  7.68D-01  5.20D-01
 E= -4575.30624961726     Delta-E=       -0.000000001506 Rises=F Damp=F
 DIIS: error= 2.86D-07 at cycle   8 NSaved=   8.
 NSaved= 8 IEnMin= 8 EnMin= -4575.30624961726     IErMin= 8 ErrMin= 2.86D-07
 ErrMax= 2.86D-07 EMaxC= 1.00D-01 BMatC= 1.36D-10 BMatP= 1.79D-09
 IDIUse=1 WtCom= 1.00D+00 WtEn= 0.00D+00
 Coeff-Com: -0.722D-05-0.246D-03-0.239D-03 0.563D-03 0.327D-01 0.165D+00
 Coeff-Com:  0.287D+00 0.516D+00
 Coeff:     -0.722D-05-0.246D-03-0.239D-03 0.563D-03 0.327D-01 0.165D+00
 Coeff:      0.287D+00 0.516D+00
 Gap=     0.069 Goal=   None    Shift=    0.000
 RMSDP=1.02D-08 MaxDP=9.72D-07 DE=-1.51D-09 OVMax= 5.18D-06

 Cycle  16  Pass 1  IDiag  1:
 RMSU=  4.37D-09    CP:  9.99D-01  1.01D+00  2.95D-01  6.24D-01  8.43D-01
                    CP:  7.70D-01  5.81D-01  5.49D-01
 E= -4575.30624961805     Delta-E=       -0.000000000786 Rises=F Damp=F
 DIIS: error= 1.10D-07 at cycle   9 NSaved=   9.
 NSaved= 9 IEnMin= 9 EnMin= -4575.30624961805     IErMin= 9 ErrMin= 1.10D-07
 ErrMax= 1.10D-07 EMaxC= 1.00D-01 BMatC= 1.38D-11 BMatP= 1.36D-10
 IDIUse=1 WtCom= 1.00D+00 WtEn= 0.00D+00
 Coeff-Com:  0.165D-04-0.264D-02-0.599D-03-0.272D-02 0.100D-01 0.676D-01
 Coeff-Com:  0.132D+00 0.315D+00 0.481D+00
 Coeff:      0.165D-04-0.264D-02-0.599D-03-0.272D-02 0.100D-01 0.676D-01
 Coeff:      0.132D+00 0.315D+00 0.481D+00
 Gap=     0.069 Goal=   None    Shift=    0.000
 RMSDP=3.33D-09 MaxDP=3.41D-07 DE=-7.86D-10 OVMax= 1.44D-06

 SCF Done:  E(RB3LYP) =  -4575.30624962     A.U. after   16 cycles
             Convg  =    0.3327D-08             -V/T =  2.0030
 KE= 4.561593968965D+03 PE=-4.783985165540D+04 EE= 2.012322060861D+04
 Leave Link  502 at Fri Feb  1 22:52:25 2013, MaxMem= 1073741824 cpu:   29094.4
 (Enter /apps/gaussian/g09_c01/g09/l801.exe)
 ExpMin= 7.78D-02 ExpMax= 1.61D+04 ExpMxC= 2.43D+03 IAcc=3 IRadAn=         5 AccDes= 0.00D+00
 HarFok:  IExCor=  205 AccDes= 0.00D+00 IRadAn=         5 IDoV=-2
 ScaDFX=  1.000000  1.000000  1.000000  1.000000
 Largest valence mixing into a core orbital is  6.42D-05
 Largest core mixing into a valence orbital is  1.56D-05
 Range of M.O.s used for correlation:   109  1936
 NBasis=  1936 NAE=   346 NBE=   346 NFC=   108 NFV=     0
 NROrb=   1828 NOA=   238 NOB=   238 NVA=  1590 NVB=  1590

 **** Warning!!: The smallest alpha delta epsilon is  0.69057421D-01

 Leave Link  801 at Fri Feb  1 22:52:28 2013, MaxMem= 1073741824 cpu:      18.9
 (Enter /apps/gaussian/g09_c01/g09/l914.exe)
 RHF ground state
 MDV=  1073741824 DFT=T DoStab=F Mixed=T DoRPA=T DoScal=F NonHer=T
 Would need an additional************ words for in-memory AO integral storage.
 Making orbital integer symmetry assigments:
   100 initial guesses have been made.
 Convergence on wavefunction:    0.001000000000000
 Davidson Disk Diagonalization:  ConvIn= 1.00D-03 SkipCon=T Conv= 1.00D-03.
 Max sub-space:   400 roots to seek:   100 dimension of matrix: 756840
 Iteration     1 Dimension   100 NMult   100
 CISAX:  IP=  8 NPass=   8 NMax=    13.
 CISAX will form    13 AO SS matrices at one time.
 NMat=    13 NSing=    13.
 FoFCou: FMM=T IPFlag=           0 FMFlag=      100000 FMFlg1=        2001
         NFxFlg=           0 DoJE=F BraDBF=F KetDBF=F FulRan=T
         Omega=  0.000000  0.000000  1.000000  0.000000  0.000000 ICntrl=       0 IOpCl=  0
         NMat0=   13 NMatS0=   13 NMatT0=    0 NMatD0=   13 NMtDS0=    0 NMtDT0=    0
         I1Cent=           0 NGrid=           0.
 Symmetry not used in FoFCou.
 FMM levels:  10  Number of levels for PrismC:   9
 NMat=    13 NSing=    13.
 NMat=    13 NSing=    13.
 NMat=    13 NSing=    13.
 NMat=    13 NSing=    13.
 NMat=    13 NSing=    13.
 NMat=    13 NSing=    13.
 NMat=     9 NSing=     9.
 CISAX:  IP=  8 NPass=   8 NMax=    13.
 CISAX will form    13 AO SS matrices at one time.
 NMat=    13 NSing=    13.
 NMat=    13 NSing=    13.
 NMat=    13 NSing=    13.
 NMat=    13 NSing=    13.
 NMat=    13 NSing=    13.
 NMat=    13 NSing=    13.
 NMat=    13 NSing=    13.
 NMat=     9 NSing=     9.
 New state      9 was old state     11
 New state     10 was old state     14
 New state     11 was old state     16
 New state     13 was old state      9
 New state     14 was old state     13
 New state     15 was old state     19
 New state     16 was old state     20
 New state     19 was old state     10
 New state     20 was old state     15
 No map to state     21
 New state     22 was old state     21
 No map to state     23
 No map to state     24
 No map to state     25
 Excitation Energies [eV] at current iteration:
 Root      1 :     1.568602882447497
 Root      2 :     1.577673246208602
 Root      3 :     2.187822772404447
 Root      4 :     2.264927663506008
 Root      5 :     2.741191568022926
 Root      6 :     2.827005656360889
 Root      7 :     2.854127180326704
 Root      8 :     2.933641581854027
 Root      9 :     3.231409758537490
 Root     10 :     3.238302108247186
 Root     11 :     3.243967216651120
 Root     12 :     3.250778118448484
 Root     13 :     3.297519825980584
 Root     14 :     3.304489076904969
 Root     15 :     3.396092861046908
 Root     16 :     3.400529848837056
 Root     17 :     3.411917333082283
 Root     18 :     3.429394894464407
 Root     19 :     3.601734879587271
 Root     20 :     3.640794668829285
 Root     21 :     3.684228968414417
 Root     22 :     3.687030076665032
 Root     23 :     3.708720687386436
 Root     24 :     3.712457959684357
 Root     25 :     3.732878339850160
 Iteration     2 Dimension   150 NMult   150
 CISAX:  IP=  8 NPass=   4 NMax=    13.
 CISAX will form    13 AO SS matrices at one time.
 NMat=    13 NSing=    13.
 NMat=    13 NSing=    13.
 NMat=    13 NSing=    13.
 NMat=    11 NSing=    11.
 CISAX:  IP=  8 NPass=   4 NMax=    13.
 CISAX will form    13 AO SS matrices at one time.
 NMat=    13 NSing=    13.
 NMat=    13 NSing=    13.
 NMat=    13 NSing=    13.
 NMat=    11 NSing=    11.
 Root      1 not converged, maximum delta is    0.143406022589255
 Root      2 not converged, maximum delta is    0.041827528292273
 Root      3 not converged, maximum delta is    0.090466264129249
 Root      4 not converged, maximum delta is    0.148919831213413
 Root      5 not converged, maximum delta is    0.143914873227662
 Root      6 not converged, maximum delta is    0.120028168455955
 Root      7 not converged, maximum delta is    0.032483530316701
 Root      8 not converged, maximum delta is    0.089340122736808
 Root      9 not converged, maximum delta is    0.214469453926035
 Root     10 not converged, maximum delta is    0.201877140318716
 Root     11 not converged, maximum delta is    0.208636627241573
 Root     12 not converged, maximum delta is    0.314595106139547
 Root     13 not converged, maximum delta is    0.367657095411766
 New state     14 was old state     19
 Root     14 not converged, maximum delta is    0.279525682133247
 New state     15 was old state     14
 Root     15 not converged, maximum delta is    0.262552400709115
 New state     16 was old state     20
 Root     16 not converged, maximum delta is    0.381973630689103
 New state     17 was old state     15
 Root     17 not converged, maximum delta is    0.083560566369246
 New state     18 was old state     16
 Root     18 not converged, maximum delta is    0.082960732409100
 New state     19 was old state     17
 Root     19 not converged, maximum delta is    0.161760076749381
 New state     20 was old state     18
 Root     20 not converged, maximum delta is    0.082399950929767
 New state     21 was old state     22
 Root     21 not converged, maximum delta is    0.303022950511838
 New state     22 was old state     21
 Root     22 not converged, maximum delta is    0.091934868160913
 Root     23 not converged, maximum delta is    0.387223170411091
 New state     24 was old state     25
 Root     24 not converged, maximum delta is    0.403052231534101
 New state     25 was old state     24
 Root     25 not converged, maximum delta is    0.054530191018525
 Excitation Energies [eV] at current iteration:
 Root      1 :     1.541994313117014   Change is   -0.026608569330483
 Root      2 :     1.575375106776474   Change is   -0.002298139432128
 Root      3 :     1.734434137989796   Change is   -0.453388634414651
 Root      4 :     1.810192272612608   Change is   -0.454735390893400
 Root      5 :     2.673742740508682   Change is   -0.067448827514244
 Root      6 :     2.742393334583887   Change is   -0.084612321777002
 Root      7 :     2.850703022320229   Change is   -0.003424158006475
 Root      8 :     2.912070439667839   Change is   -0.021571142186188
 Root      9 :     3.176823879892073   Change is   -0.054585878645417
 Root     10 :     3.178927950318478   Change is   -0.059374157928708
 Root     11 :     3.185942040774569   Change is   -0.058025175876551
 Root     12 :     3.195656030042301   Change is   -0.055122088406183
 Root     13 :     3.243135742647511   Change is   -0.054384083333073
 Root     14 :     3.255033463478198   Change is   -0.346701416109073
 Root     15 :     3.315635117257529   Change is    0.011146040352560
 Root     16 :     3.341098689838579   Change is   -0.299695978990706
 Root     17 :     3.389686984939293   Change is   -0.006405876107615
 Root     18 :     3.391227226596395   Change is   -0.009302622240661
 Root     19 :     3.415738650395644   Change is    0.003821317313360
 Root     20 :     3.427647502080449   Change is   -0.001747392383958
 Root     21 :     3.654873344097858   Change is   -0.032156732567174
 Root     22 :     3.657095461470254   Change is   -0.027133506944162
 Root     23 :     3.674981307736822   Change is   -0.033739379649614
 Root     24 :     3.682772068516925   Change is   -0.050106271333235
 Root     25 :     3.684019828802024   Change is   -0.028438130882333
 Iteration     3 Dimension   200 NMult   200
 CISAX:  IP=  8 NPass=   4 NMax=    13.
 CISAX will form    13 AO SS matrices at one time.
 NMat=    13 NSing=    13.
 NMat=    13 NSing=    13.
 NMat=    13 NSing=    13.
 NMat=    11 NSing=    11.
 CISAX:  IP=  8 NPass=   4 NMax=    13.
 CISAX will form    13 AO SS matrices at one time.
 NMat=    13 NSing=    13.
 NMat=    13 NSing=    13.
 NMat=    13 NSing=    13.
 NMat=    11 NSing=    11.
 Root      1 not converged, maximum delta is    0.010688742121231
 Root      2 not converged, maximum delta is    0.003865278046313
 Root      3 not converged, maximum delta is    0.005895325195471
 Root      4 not converged, maximum delta is    0.009588165992230
 Root      5 not converged, maximum delta is    0.007576599498281
 Root      6 not converged, maximum delta is    0.007515185133362
 Root      7 not converged, maximum delta is    0.001186295542204
 Root      8 not converged, maximum delta is    0.005858005015541
 Root      9 not converged, maximum delta is    0.164927788398535
 Root     10 not converged, maximum delta is    0.173202469963486
 Root     11 not converged, maximum delta is    0.015960764197103
 Root     12 not converged, maximum delta is    0.031127368319975
 Root     13 not converged, maximum delta is    0.037568525590973
 Root     14 not converged, maximum delta is    0.055901979190482
 Root     15 not converged, maximum delta is    0.049888330351622
 Root     16 not converged, maximum delta is    0.043525945949878
 Root     17 not converged, maximum delta is    0.045999698030015
 Root     18 not converged, maximum delta is    0.045686899860055
 Root     19 not converged, maximum delta is    0.014818496197253
 Root     20 not converged, maximum delta is    0.004547740327054
 Root     21 not converged, maximum delta is    0.139302590353466
 Root     22 not converged, maximum delta is    0.098367610744869
 Root     23 not converged, maximum delta is    0.190858498981918
 Root     24 not converged, maximum delta is    0.147413756319832
 Root     25 not converged, maximum delta is    0.072135353566386
 Excitation Energies [eV] at current iteration:
 Root      1 :     1.540039551052578   Change is   -0.001954762064437
 Root      2 :     1.575194787157374   Change is   -0.000180319619100
 Root      3 :     1.724041374452610   Change is   -0.010392763537186
 Root      4 :     1.799054836554134   Change is   -0.011137436058474
 Root      5 :     2.669802136912527   Change is   -0.003940603596155
 Root      6 :     2.737384679174591   Change is   -0.005008655409296
 Root      7 :     2.850575778558669   Change is   -0.000127243761561
 Root      8 :     2.910700423204577   Change is   -0.001370016463262
 Root      9 :     3.171664707438810   Change is   -0.005159172453264
 Root     10 :     3.174476221326992   Change is   -0.004451728991487
 Root     11 :     3.179951116962008   Change is   -0.005990923812562
 Root     12 :     3.189467960034758   Change is   -0.006188070007543
 Root     13 :     3.235073722273063   Change is   -0.008062020374448
 Root     14 :     3.242645518286996   Change is   -0.012387945191201
 Root     15 :     3.312763446872338   Change is   -0.002871670385191
 Root     16 :     3.334816679834806   Change is   -0.006282010003773
 Root     17 :     3.389316460081243   Change is   -0.000370524858050
 Root     18 :     3.390479458453163   Change is   -0.000747768143232
 Root     19 :     3.415169596689199   Change is   -0.000569053706445
 Root     20 :     3.427132785770582   Change is   -0.000514716309866
 Root     21 :     3.643916861892361   Change is   -0.010956482205497
 Root     22 :     3.652293028468993   Change is   -0.004802433001261
 Root     23 :     3.667303820375026   Change is   -0.007677487361797
 Root     24 :     3.679098107103133   Change is   -0.003673961413792
 Root     25 :     3.680761368909751   Change is   -0.003258459892273
 Iteration     4 Dimension   250 NMult   250
 CISAX:  IP=  8 NPass=   4 NMax=    13.
 CISAX will form    13 AO SS matrices at one time.
 NMat=    13 NSing=    13.
 NMat=    13 NSing=    13.
 NMat=    13 NSing=    13.
 NMat=    11 NSing=    11.
 CISAX:  IP=  8 NPass=   4 NMax=    13.
 CISAX will form    13 AO SS matrices at one time.
 NMat=    13 NSing=    13.
 NMat=    13 NSing=    13.
 NMat=    13 NSing=    13.
 NMat=    11 NSing=    11.
 Root      1 not converged, maximum delta is    0.001068162718816
 Root      2 has converged.
 Root      3 not converged, maximum delta is    0.001223130068663
 Root      4 not converged, maximum delta is    0.001557120931329
 Root      5 has converged.
 Root      6 not converged, maximum delta is    0.001107623322137
 Root      7 has converged.
 Root      8 has converged.
 Root      9 not converged, maximum delta is    0.007895757054719
 Root     10 not converged, maximum delta is    0.008431834706020
 Root     11 not converged, maximum delta is    0.001101427786129
 Root     12 not converged, maximum delta is    0.003476621056372
 Root     13 not converged, maximum delta is    0.003609432959879
 Root     14 not converged, maximum delta is    0.004142932162229
 Root     15 not converged, maximum delta is    0.003773402717863
 Root     16 not converged, maximum delta is    0.004299242043111
 Root     17 not converged, maximum delta is    0.006033326823122
 Root     18 not converged, maximum delta is    0.006017134098266
 Root     19 not converged, maximum delta is    0.001413710851466
 Root     20 has converged.
 Root     21 not converged, maximum delta is    0.016469436383497
 Root     22 not converged, maximum delta is    0.033745820239494
 Root     23 not converged, maximum delta is    0.019574280779685
 Root     24 not converged, maximum delta is    0.008260432145036
 Root     25 not converged, maximum delta is    0.166716820721753
 Excitation Energies [eV] at current iteration:
 Root      1 :     1.539849529213102   Change is   -0.000190021839475
 Root      2 :     1.575178916203403   Change is   -0.000015870953971
[...]
 Alpha virt. eigenvalues --    3.12249   3.12298   3.13772   3.14115   3.14155
 Alpha virt. eigenvalues --    3.14243   3.14291   3.14500   3.14570   3.14588
 Alpha virt. eigenvalues --    3.14635   3.14930   3.15057   3.15092   3.15173
 Alpha virt. eigenvalues --    3.15200   3.15369   3.15409   3.15483   3.15529
 Alpha virt. eigenvalues --    3.16007   3.16023   3.16076   3.16106   3.16446
 Alpha virt. eigenvalues --    3.16484   3.16532   3.16571   3.17130   3.17154
 Alpha virt. eigenvalues --    3.17611   3.17680   3.17798   3.17846   3.18225
 Alpha virt. eigenvalues --    3.18332   3.18446   3.18524   3.18685   3.18732
 Alpha virt. eigenvalues --    3.19049   3.19085   3.21987   3.22267   3.22347
 Alpha virt. eigenvalues --    3.22523   3.24841   3.25190   3.25537   3.25676
 Alpha virt. eigenvalues --    3.26517   3.27637   3.29297   3.29330   3.30452
 Alpha virt. eigenvalues --    3.30571   3.31101   3.31230   3.33846   3.34072
 Alpha virt. eigenvalues --    3.34563   3.34834   3.41290   3.41494   3.46660
 Alpha virt. eigenvalues --    3.46756   3.51387   3.51431   3.55609   3.55787
 Alpha virt. eigenvalues --    3.57872   3.57998   3.58428   3.58462   3.58592
 Alpha virt. eigenvalues --    3.58634   3.58645   3.58701   3.59388   3.59455
 Alpha virt. eigenvalues --    3.60173   3.60309   3.61498   3.61543   3.61707
 Alpha virt. eigenvalues --    3.61832   3.62210   3.62270   3.62302   3.62367
 Alpha virt. eigenvalues --    3.62480   3.62527   3.62737   3.62757   3.63608
 Alpha virt. eigenvalues --    3.63674   3.63820   3.63950   3.64001   3.64136
 Alpha virt. eigenvalues --    3.64240   3.64346   3.64576   3.64609   3.64825
 Alpha virt. eigenvalues --    3.64943   3.65673   3.65765   3.65835   3.65869
 Alpha virt. eigenvalues --    3.66792   3.66846   3.66976   3.67064   3.71661
 Alpha virt. eigenvalues --    3.71683   3.71872   3.71920   3.71970   3.72043
 Alpha virt. eigenvalues --    3.72127   3.72223   3.72473   3.72534   3.73107
 Alpha virt. eigenvalues --    3.73133   3.73405   3.73524   3.73637   3.73713
 Alpha virt. eigenvalues --    3.74440   3.74490   3.74801   3.74864   3.75351
 Alpha virt. eigenvalues --    3.75459   3.75694   3.75781   3.75812   3.75928
 Alpha virt. eigenvalues --    3.76080   3.76192   3.76392   3.76489   3.76640
 Alpha virt. eigenvalues --    3.76746   3.76865   3.76940   3.77200   3.77286
 Alpha virt. eigenvalues --    3.78971   3.79065   3.79266   3.79362   3.81385
 Alpha virt. eigenvalues --    3.81456   3.81470   3.81538   3.83098   3.83178
 Alpha virt. eigenvalues --    3.83471   3.83551   3.84940   3.85111   3.85233
 Alpha virt. eigenvalues --    3.85396   3.86197   3.86238   3.86995   3.87053
 Alpha virt. eigenvalues --    3.87576   3.87617   3.88105   3.88163   3.96114
 Alpha virt. eigenvalues --    3.96175   3.97094   3.97264   4.07858   4.08069
 Alpha virt. eigenvalues --    4.09667   4.11086   4.11325   4.11849   4.12027
 Alpha virt. eigenvalues --    4.12053   4.13111   4.14053   4.14210   4.14572
 Alpha virt. eigenvalues --    4.14967   4.15055   4.15412   4.16375   4.17053
 Alpha virt. eigenvalues --    4.17380   4.17647   4.17829   4.18567   4.18826
 Alpha virt. eigenvalues --    4.19820   4.20996   4.21834   4.22897   4.23329
 Alpha virt. eigenvalues --    4.23908   4.34237   4.34354   4.35347   4.36164
 Alpha virt. eigenvalues --    4.36969   4.37054   4.37302   4.37624   4.37754
 Alpha virt. eigenvalues --    4.37800   4.38127   4.38354   4.39004   4.40322
 Alpha virt. eigenvalues --    4.42087   4.42643   4.45715   4.46007   4.47194
 Alpha virt. eigenvalues --    4.47604   4.48517   4.48532   4.48641   4.48832
 Alpha virt. eigenvalues --    4.51184   4.51260   4.51469   4.52523   4.55434
 Alpha virt. eigenvalues --    4.55517   4.56381   4.56417   4.56944   4.56988
 Alpha virt. eigenvalues --    4.57847   4.57855   4.59069   4.59205   4.59945
 Alpha virt. eigenvalues --    4.61101   4.61823   4.61969   4.62911   4.62935
 Alpha virt. eigenvalues --    4.63490   4.64420   4.64449   4.64516   4.68643
 Alpha virt. eigenvalues --    4.68879   4.69331   4.69532   4.76694   4.76750
 Alpha virt. eigenvalues --    4.77570   4.77634   4.79815   4.79859   4.86715
 Alpha virt. eigenvalues --    4.88129   4.96959   4.97123   5.10557   5.11174
          Condensed to atoms (all electrons):
 Mulliken atomic charges:
              1
     1  Si   0.577600
     2  C   -0.076522
     3  C    0.110527
     4  C   -0.161006
     5  H    0.058297
     6  C    0.102873
     7  C   -0.087681
     8  H    0.057726
     9  C   -0.063403
    10  H    0.058541
    11  C   -0.063280
    12  H    0.058428
    13  C   -0.081753
    14  H    0.055815
    15  C    0.104688
    16  C   -0.173278
    17  H    0.065867
    18  C    0.111819
    19  C    0.394153
    20  C   -0.612555
    21  C   -0.287854
    22  H    0.104509
    23  C   -0.306571
    24  H    0.125063
    25  H    0.103203
    26  H    0.093959
    27  C   -0.311957
    28  H    0.095290
    29  H    0.103772
    30  H    0.123481
    31  C   -0.281288
    32  H    0.114440
    33  C   -0.310798
    34  H    0.100245
    35  H    0.103955
    36  H    0.107571
    37  C   -0.304226
    38  H    0.105320
    39  H    0.116263
    40  H    0.092932
    41  C   -0.276983
    42  H    0.116442
    43  C   -0.308131
    44  H    0.105291
    45  H    0.096844
    46  H    0.108740
    47  C   -0.304553
    48  H    0.120749
    49  H    0.104230
    50  H    0.090930
    51  Si   0.577696
    52  C   -0.074298
    53  C    0.117179
    54  C   -0.156260
    55  H    0.058137
    56  C    0.105905
    57  C   -0.085181
    58  H    0.058900
    59  C   -0.061533
    60  H    0.062461
    61  C   -0.061287
    62  H    0.062167
    63  C   -0.080953
    64  H    0.057249
    65  C    0.109487
    66  C   -0.172931
    67  H    0.063887
    68  C    0.119827
    69  C    0.395480
    70  C   -0.613062
    71  C   -0.286974
    72  H    0.105181
    73  C   -0.313210
    74  H    0.124444
    75  H    0.104932
    76  H    0.094725
    77  C   -0.309854
    78  H    0.094235
    79  H    0.105556
    80  H    0.121234
    81  C   -0.272643
    82  H    0.112592
    83  C   -0.311325
    84  H    0.098077
    85  H    0.103129
    86  H    0.108895
    87  C   -0.305228
    88  H    0.106302
    89  H    0.118582
    90  H    0.090690
    91  C   -0.277799
    92  H    0.115136
    93  C   -0.317679
    94  H    0.104653
    95  H    0.103283
    96  H    0.109234
    97  C   -0.312954
    98  H    0.122008
    99  H    0.104034
   100  H    0.100142
   101  Si   0.577306
   102  C   -0.073508
   103  C    0.116016
   104  C   -0.155794
   105  H    0.057832
   106  C    0.106450
   107  C   -0.085494
   108  H    0.059023
   109  C   -0.061217
   110  H    0.062397
   111  C   -0.061683
   112  H    0.062323
   113  C   -0.080750
   114  H    0.057217
   115  C    0.109475
   116  C   -0.172246
   117  H    0.063811
   118  C    0.119356
   119  C    0.396119
   120  C   -0.613379
   121  C   -0.287208
   122  H    0.105139
   123  C   -0.313020
   124  H    0.124340
   125  H    0.104970
   126  H    0.094733
   127  C   -0.309806
   128  H    0.094237
   129  H    0.105586
   130  H    0.121254
   131  C   -0.272634
   132  H    0.112608
   133  C   -0.311425
   134  H    0.098061
   135  H    0.103044
   136  H    0.108977
   137  C   -0.305058
   138  H    0.106319
   139  H    0.118589
   140  H    0.090686
   141  C   -0.278041
   142  H    0.115061
   143  C   -0.317861
   144  H    0.104630
   145  H    0.103298
   146  H    0.109233
   147  C   -0.312541
   148  H    0.121964
   149  H    0.104047
   150  H    0.100198
   151  Si   0.577966
   152  C   -0.077320
   153  C    0.111636
   154  C   -0.161438
   155  H    0.058601
   156  C    0.102328
   157  C   -0.087384
   158  H    0.057625
   159  C   -0.063744
   160  H    0.058619
   161  C   -0.062856
   162  H    0.058260
   163  C   -0.081952
   164  H    0.055837
   165  C    0.104711
   166  C   -0.174008
   167  H    0.065941
   168  C    0.112356
   169  C    0.393464
   170  C   -0.612153
   171  C   -0.287638
   172  H    0.104553
   173  C   -0.306776
   174  H    0.125153
   175  H    0.103180
   176  H    0.093955
   177  C   -0.311992
   178  H    0.095291
   179  H    0.103767
   180  H    0.123447
   181  C   -0.281322
   182  H    0.114435
   183  C   -0.310713
   184  H    0.100262
   185  H    0.104046
   186  H    0.107503
   187  C   -0.304387
   188  H    0.105293
   189  H    0.116252
   190  H    0.092938
   191  C   -0.276725
   192  H    0.116512
   193  C   -0.307960
   194  H    0.105314
   195  H    0.096844
   196  H    0.108739
   197  C   -0.304938
   198  H    0.120789
   199  H    0.104217
   200  H    0.090846
 Sum of Mulliken atomic charges =   0.00000
 Mulliken charges with hydrogens summed into heavy atoms:
              1
     1  Si   0.577600
     2  C   -0.076522
     3  C    0.110527
     4  C   -0.102708
     6  C    0.102873
     7  C   -0.029955
     9  C   -0.004861
    11  C   -0.004852
    13  C   -0.025937
    15  C    0.104688
    16  C   -0.107410
    18  C    0.111819
    19  C    0.394153
    20  C   -0.612555
    21  C   -0.183345
    23  C    0.015654
    27  C    0.010586
    31  C   -0.166848
    33  C    0.000973
    37  C    0.010289
    41  C   -0.160541
    43  C    0.002744
    47  C    0.011356
    51  Si   0.577696
    52  C   -0.074298
    53  C    0.117179
    54  C   -0.098123
    56  C    0.105905
    57  C   -0.026282
    59  C    0.000928
    61  C    0.000880
    63  C   -0.023703
    65  C    0.109487
    66  C   -0.109044
    68  C    0.119827
    69  C    0.395480
    70  C   -0.613062
    71  C   -0.181793
    73  C    0.010891
    77  C    0.011171
    81  C   -0.160051
    83  C   -0.001224
    87  C    0.010346
    91  C   -0.162663
    93  C   -0.000508
    97  C    0.013230
   101  Si   0.577306
   102  C   -0.073508
   103  C    0.116016
   104  C   -0.097962
   106  C    0.106450
   107  C   -0.026471
   109  C    0.001179
   111  C    0.000640
   113  C   -0.023533
   115  C    0.109475
   116  C   -0.108435
   118  C    0.119356
   119  C    0.396119
   120  C   -0.613379
   121  C   -0.182069
   123  C    0.011023
   127  C    0.011271
   131  C   -0.160026
   133  C   -0.001342
   137  C    0.010537
   141  C   -0.162980
   143  C   -0.000700
   147  C    0.013668
   151  Si   0.577966
   152  C   -0.077320
   153  C    0.111636
   154  C   -0.102837
   156  C    0.102328
   157  C   -0.029759
   159  C   -0.005125
   161  C   -0.004596
   163  C   -0.026115
   165  C    0.104711
   166  C   -0.108068
   168  C    0.112356
   169  C    0.393464
   170  C   -0.612153
   171  C   -0.183085
   173  C    0.015511
   177  C    0.010512
   181  C   -0.166887
   183  C    0.001098
   187  C    0.010096
   191  C   -0.160212
   193  C    0.002937
   197  C    0.010913
 Sum of Mulliken charges with hydrogens summed into heavy atoms =   0.00000
 Electronic spatial extent (au):  <R**2>=         712796.6518
 Charge=              0.0000 electrons
 Dipole moment (field-independent basis, Debye):
    X=              0.0002    Y=              0.0020    Z=             -0.0017  Tot=              0.0026
 Quadrupole moment (field-independent basis, Debye-Ang):
   XX=           -542.7714   YY=           -558.8320   ZZ=           -530.2537
   XY=            -19.6260   XZ=            -13.1804   YZ=            -21.5201
 Traceless Quadrupole moment (field-independent basis, Debye-Ang):
   XX=              1.1810   YY=            -14.8796   ZZ=             13.6987
   XY=            -19.6260   XZ=            -13.1804   YZ=            -21.5201
 Octapole moment (field-independent basis, Debye-Ang**2):
  XXX=         -19143.7268  YYY=          -9662.9574  ZZZ=         -13264.9145  XYY=          -6796.5175
  XXY=          -3590.2598  XXZ=          -4835.8645  XZZ=          -6453.7186  YZZ=          -3415.0791
  YYZ=          -4908.5110  XYZ=           -492.6540
 Hexadecapole moment (field-independent basis, Debye-Ang**3):
 XXXX=        -517018.8408 YYYY=        -132690.5748 ZZZZ=        -288433.9801 XXXY=        -116840.7159
 XXXZ=        -160861.3721 YYYX=        -112295.1357 YYYZ=         -71436.9810 ZZZX=        -153684.3500
 ZZZY=         -69793.5682 XXYY=        -115213.1177 XXZZ=        -138274.3760 YYZZ=         -75246.4601
 XXYZ=         -31129.6905 YYXZ=         -58275.4710 ZZXY=         -41651.6568
 N-N= 1.857973082821D+04 E-N=-4.783985153403D+04  KE= 4.561593968965D+03
 Leave Link  601 at Sun Feb  3 04:56:22 2013, MaxMem= 1073741824 cpu:      17.4
 (Enter /apps/gaussian/g09_c01/g09/l9999.exe)
 1\1\GINC-CX1-7-6-2\SP\RB3LYP TD-FC\6-31G(d,p)\C88H108Si4\JMF02\03-Feb-
 2013\0\\#p scf=verytight b3lyp/6-31g(d,p) td(singlets,nstates=25) nosy
 mm\\CSD ENTRY k01029\\0,1\Si,0,7.3246218,3.49405732,13.73454049\C,0,7.
 89519977,5.27475474,9.6692504\C,0,6.90248072,6.16342899,9.19115004\C,0
 ,5.82251369,6.57504288,9.99183863\H,0,5.77488329,6.26559964,10.8872727
 3\C,0,4.82732278,7.41473114,9.52558155\C,0,3.72744551,7.82638816,10.33
 833581\H,0,3.67045693,7.52245014,11.23778452\C,0,2.76582925,8.63928261
 ,9.85033398\H,0,2.04726408,8.907831,10.41106641\C,0,2.8222809,9.096258
 74,8.50712289\H,0,2.13483955,9.6621266,8.17497994\C,0,3.83791404,8.738
 28467,7.69837701\H,0,3.85916981,9.05918385,6.80471494\C,0,4.88648498,7
 .88164689,8.16409871\C,0,5.95057172,7.50193196,7.36833682\H,0,5.994203
 72,7.82560567,6.47545352\C,0,6.97287461,6.64975416,7.83072711\C,0,7.77
 489688,4.74422493,10.9981132\C,0,7.63090887,4.26599889,12.09567245\C,0
 ,7.49985064,1.62842277,13.53714598\H,0,7.33157851,1.214442,14.43071546
 \C,0,6.46822943,1.04703269,12.55338318\H,0,6.55447792,1.49646016,11.68
 553634\H,0,5.5656265,1.18730337,12.90735504\H,0,6.62992516,0.08717097,
 12.44040102\C,0,8.91996745,1.24171155,13.10837134\H,0,8.97601141,0.268
 5909,13.00293287\H,0,9.55799452,1.53243757,13.7924392\H,0,9.13396623,1
 .6760451,12.25761351\C,0,8.65151959,4.13965066,14.89510737\H,0,9.52441
 635,3.90315244,14.46883887\C,0,8.66548848,3.47236403,16.27140074\H,0,9
 .47245456,3.74359801,16.75626349\H,0,8.66189681,2.4985193,16.16394589\
 H,0,7.87319628,3.74818826,16.77633543\C,0,8.65419146,5.66224113,15.036
 04749\H,0,7.83291566,5.94888375,15.48772888\H,0,8.69906704,6.07195379,
 14.14888701\H,0,9.43157993,5.93993695,15.56316435\C,0,5.57434901,3.936
 63351,14.24247403\H,0,5.02318942,3.48799266,13.53705324\C,0,5.14579188
 ,3.23007949,15.48523917\H,0,5.4882582,2.31095895,15.47498065\H,0,4.166
 99554,3.21252343,15.53079689\H,0,5.50068858,3.70120269,16.26801901\C,0
 ,5.16917098,5.33443905,14.12192766\H,0,5.53963673,5.71201053,13.296012
 47\H,0,5.50543754,5.8386851,14.89183138\H,0,4.19130604,5.39022216,14.0
 9773226\Si,0,8.62411554,8.03390657,2.94371407\C,0,8.05348275,6.2522106
 6,7.00900015\C,0,9.04620181,5.36353641,7.48710052\C,0,10.12517542,4.95
 197665,6.68651292\H,0,10.17385405,5.26236424,5.79098183\C,0,11.1213597
 5,4.11223425,7.152669\C,0,12.22129183,3.70157573,6.33991874\H,0,12.278
 2256,4.00451526,5.44046603\C,0,13.18290809,2.88868127,6.82792057\H,0,1
 3.90141844,2.61913439,6.26718414\C,0,13.12640162,2.43070666,8.17112766
 \H,0,13.81389779,1.86583728,8.50327462\C,0,12.11076848,2.78868073,8.97
 987354\H,0,12.08951271,2.46778154,9.87353561\C,0,11.06219754,3.6453185
 1,8.51415184\C,0,9.99717221,4.02608605,9.31001874\H,0,9.95447881,3.701
 35973,10.20279703\C,0,8.9748145,4.87726537,8.84762443\C,0,8.17378564,6
 .78274047,5.68013735\C,0,8.31777366,7.26096651,4.5825781\C,0,8.4488318
 8,9.89854263,3.14110457\H,0,8.61616541,10.31357602,2.24764009\C,0,9.47
 945968,10.47998684,4.12496836\H,0,9.3942046,10.03050524,4.99271421\H,0
 ,10.38305603,10.33966203,3.77089551\H,0,9.31881218,11.44079292,4.23785
 354\C,0,7.02871508,10.28525385,3.56987921\H,0,6.97267111,11.2583745,3.
 67531769\H,0,6.390688,9.99452783,2.88581135\H,0,6.81372288,9.85097443,
 4.42073804\C,0,7.29721775,7.38831323,1.78314718\H,0,6.42327276,7.62386
 709,2.20951267\C,0,7.28225544,8.05565399,0.40695481\H,0,6.47523455,7.7
 8342152,-0.07791194\H,0,7.2857923,9.02850023,0.51440566\H,0,8.07548625
 ,7.77877714,-0.09808488\C,0,7.29454588,5.86572275,1.64220707\H,0,8.115
 76686,5.57808165,1.19052167\H,0,7.24961549,5.4550116,2.52936354\H,0,6.
 51715741,5.58802694,1.1150902\C,0,10.37438833,7.59133038,2.43578053\H,
 0,10.92549311,8.03897274,3.14119731\C,0,10.80294546,8.29788439,1.19301
 538\H,0,10.45943091,9.21606058,1.20337089\H,0,11.78168699,8.31444196,1
 .14745366\H,0,10.44804876,7.8267612,0.41023555\C,0,10.77857295,6.19357
 897,2.55642789\H,0,10.40904579,5.81495486,3.38223808\H,0,10.44225157,5
 .68833443,1.78652017\H,0,11.75737648,6.13674323,2.58051829\Si,0,14.889
 6,3.49406,13.7345\C,0,15.4602,5.27475,9.66925\C,0,14.4675,6.16343,9.19
 115\C,0,13.3875,6.57504,9.99184\H,0,13.3399,6.2656,10.8873\C,0,12.3923
 ,7.41473,9.52558\C,0,11.2924,7.82639,10.3383\H,0,11.2355,7.52245,11.23
 78\C,0,10.3308,8.63928,9.85033\H,0,9.61226,8.90783,10.4111\C,0,10.3873
 ,9.09626,8.50712\H,0,9.69984,9.66213,8.17498\C,0,11.4029,8.73828,7.698
 38\H,0,11.4242,9.05918,6.80471\C,0,12.4515,7.88165,8.1641\C,0,13.5156,
 7.50193,7.36834\H,0,13.5592,7.82561,6.47545\C,0,14.5379,6.64975,7.8307
 3\C,0,15.3399,4.74422,10.9981\C,0,15.1959,4.266,12.0957\C,0,15.0649,1.
 62842,13.5371\H,0,14.8966,1.21444,14.4307\C,0,14.0332,1.04703,12.5534\
 H,0,14.1195,1.49646,11.6855\H,0,13.1306,1.1873,12.9074\H,0,14.1949,0.0
 87171,12.4404\C,0,16.485,1.24171,13.1084\H,0,16.541,0.268591,13.0029\H
 ,0,17.123,1.53244,13.7924\H,0,16.699,1.67605,12.2576\C,0,16.2165,4.139
 65,14.8951\H,0,17.0894,3.90315,14.4688\C,0,16.2305,3.47236,16.2714\H,0
 ,17.0375,3.7436,16.7563\H,0,16.2269,2.49852,16.1639\H,0,15.4382,3.7481
 9,16.7763\C,0,16.2192,5.66224,15.036\H,0,15.3979,5.94888,15.4877\H,0,1
 6.2641,6.07195,14.1489\H,0,16.9966,5.93994,15.5632\C,0,13.1393,3.93663
 ,14.2425\H,0,12.5882,3.48799,13.5371\C,0,12.7108,3.23008,15.4852\H,0,1
 3.0533,2.31096,15.475\H,0,11.732,3.21252,15.5308\H,0,13.0657,3.7012,16
 .268\C,0,12.7342,5.33444,14.1219\H,0,13.1046,5.71201,13.296\H,0,13.070
 4,5.83869,14.8918\H,0,11.7563,5.39022,14.0977\Si,0,16.1891,8.03391,2.9
 4371\C,0,15.6185,6.25221,7.009\C,0,16.6112,5.36354,7.4871\C,0,17.6902,
 4.95198,6.68651\H,0,17.7389,5.26236,5.79098\C,0,18.6864,4.11223,7.1526
 7\C,0,19.7863,3.70158,6.33992\H,0,19.8432,4.00452,5.44047\C,0,20.7479,
 2.88868,6.82792\H,0,21.4664,2.61913,6.26718\C,0,20.6914,2.43071,8.1711
 3\H,0,21.3789,1.86584,8.50327\C,0,19.6758,2.78868,8.97987\H,0,19.6545,
 2.46778,9.87354\C,0,18.6272,3.64532,8.51415\C,0,17.5622,4.02609,9.3100
 2\H,0,17.5195,3.70136,10.2028\C,0,16.5398,4.87727,8.84762\C,0,15.7388,
 6.78274,5.68014\C,0,15.8828,7.26097,4.58258\C,0,16.0138,9.89854,3.1411
 \H,0,16.1812,10.3136,2.24764\C,0,17.0445,10.48,4.12497\H,0,16.9592,10.
 0305,4.99271\H,0,17.9481,10.3397,3.7709\H,0,16.8838,11.4408,4.23785\C,
 0,14.5937,10.2853,3.56988\H,0,14.5377,11.2584,3.67532\H,0,13.9557,9.99
 453,2.88581\H,0,14.3787,9.85097,4.42074\C,0,14.8622,7.38831,1.78315\H,
 0,13.9883,7.62387,2.20951\C,0,14.8473,8.05565,0.406955\H,0,14.0402,7.7
 8342,-0.0779119\H,0,14.8508,9.0285,0.514406\H,0,15.6405,7.77878,-0.098
 0849\C,0,14.8595,5.86572,1.64221\H,0,15.6808,5.57808,1.19052\H,0,14.81
 46,5.45501,2.52936\H,0,14.0822,5.58803,1.11509\C,0,17.9394,7.59133,2.4
 3578\H,0,18.4905,8.03897,3.1412\C,0,18.3679,8.29788,1.19302\H,0,18.024
 4,9.21606,1.20337\H,0,19.3467,8.31444,1.14745\H,0,18.013,7.82676,0.410
 236\C,0,18.3436,6.19358,2.55643\H,0,17.974,5.81495,3.38224\H,0,18.0073
 ,5.68833,1.78652\H,0,19.3224,6.13674,2.58052\\Version=EM64L-G09RevC.01
 \HF=-4575.3062496\RMSD=3.327e-09\PG=C01 [X(C88H108Si4)]\\@


 It is also a good rule not to put too much confidence in
 experimental results until they have been confirmed by
 Theory.
                             -- Sir Arthur Eddington
 Job cpu time: 10 days  7 hours 47 minutes 27.1 seconds.
 File lengths (MBytes):  RWF=  18983 Int=      0 D2E=      0 Chk=   3114 Scr=      1
 Normal termination of Gaussian 09 at Sun Feb  3 04:56:40 2013.
