 Entering Gaussian System, Link 0=g03
 Input=k01029_full_PBC_TV3.com
 Output=k01029_full_PBC_TV3.log
 Initial command:
 /apps/gaussian/g09_c01/g09/l1.exe /tmp/pbs.3771598.cx1b/Gau-9245.inp -scrdir=/tmp/pbs.3771598.cx1b/
 Entering Link 1 = /apps/gaussian/g09_c01/g09/l1.exe PID=      9247.
  
 Copyright (c) 1988,1990,1992,1993,1995,1998,2003,2009,2011,
            Gaussian, Inc.  All Rights Reserved.
  
 This is part of the Gaussian(R) 09 program.  It is based on
 the Gaussian(R) 03 system (copyright 2003, Gaussian, Inc.),
 the Gaussian(R) 98 system (copyright 1998, Gaussian, Inc.),
 the Gaussian(R) 94 system (copyright 1995, Gaussian, Inc.),
 the Gaussian 92(TM) system (copyright 1992, Gaussian, Inc.),
 the Gaussian 90(TM) system (copyright 1990, Gaussian, Inc.),
 the Gaussian 88(TM) system (copyright 1988, Gaussian, Inc.),
 the Gaussian 86(TM) system (copyright 1986, Carnegie Mellon
 University), and the Gaussian 82(TM) system (copyright 1983,
 Carnegie Mellon University). Gaussian is a federally registered
 trademark of Gaussian, Inc.
  
 This software contains proprietary and confidential information,
 including trade secrets, belonging to Gaussian, Inc.
  
 This software is provided under written license and may be
 used, copied, transmitted, or stored only in accord with that
 written license.
  
 The following legend is applicable only to US Government
 contracts under FAR:
  
                    RESTRICTED RIGHTS LEGEND
  
 Use, reproduction and disclosure by the US Government is
 subject to restrictions as set forth in subparagraphs (a)
 and (c) of the Commercial Computer Software - Restricted
 Rights clause in FAR 52.227-19.
  
 Gaussian, Inc.
 340 Quinnipiac St., Bldg. 40, Wallingford CT 06492
  
  
 ---------------------------------------------------------------
 Warning -- This program may not be used in any manner that
 competes with the business of Gaussian, Inc. or will provide
 assistance to any competitor of Gaussian, Inc.  The licensee
 of this program is prohibited from giving any competitor of
 Gaussian, Inc. access to this program.  By using this program,
 the user acknowledges that Gaussian, Inc. is engaged in the
 business of creating and licensing software in the field of
 computational chemistry and represents and warrants to the
 licensee that it is not a competitor of Gaussian, Inc. and that
 it will not use this program in any manner prohibited above.
 ---------------------------------------------------------------
  

 Cite this work as:
 Gaussian 09, Revision C.01,
 M. J. Frisch, G. W. Trucks, H. B. Schlegel, G. E. Scuseria, 
 M. A. Robb, J. R. Cheeseman, G. Scalmani, V. Barone, B. Mennucci, 
 G. A. Petersson, H. Nakatsuji, M. Caricato, X. Li, H. P. Hratchian, 
 A. F. Izmaylov, J. Bloino, G. Zheng, J. L. Sonnenberg, M. Hada, 
 M. Ehara, K. Toyota, R. Fukuda, J. Hasegawa, M. Ishida, T. Nakajima, 
 Y. Honda, O. Kitao, H. Nakai, T. Vreven, J. A. Montgomery, Jr., 
 J. E. Peralta, F. Ogliaro, M. Bearpark, J. J. Heyd, E. Brothers, 
 K. N. Kudin, V. N. Staroverov, T. Keith, R. Kobayashi, J. Normand, 
 K. Raghavachari, A. Rendell, J. C. Burant, S. S. Iyengar, J. Tomasi, 
 M. Cossi, N. Rega, J. M. Millam, M. Klene, J. E. Knox, J. B. Cross, 
 V. Bakken, C. Adamo, J. Jaramillo, R. Gomperts, R. E. Stratmann, 
 O. Yazyev, A. J. Austin, R. Cammi, C. Pomelli, J. W. Ochterski, 
 R. L. Martin, K. Morokuma, V. G. Zakrzewski, G. A. Voth, 
 P. Salvador, J. J. Dannenberg, S. Dapprich, A. D. Daniels, 
 O. Farkas, J. B. Foresman, J. V. Ortiz, J. Cioslowski, 
 and D. J. Fox, Gaussian, Inc., Wallingford CT, 2010.
 
 ******************************************
 Gaussian 09:  EM64L-G09RevC.01 23-Sep-2011
                 5-Feb-2013 
 ******************************************
 %chk=k01029_full_PBC_TV3.chk
 %Mem=12Gb
 %nproc=16
 Will use up to   16 processors via shared memory.
 ----------------------------------------------------------------
 #p scf=verytight b3lyp/6-31g(d,p) td(singlets,nstates=25) nosymm
 ----------------------------------------------------------------
 1/38=1/1;
 2/12=2,15=1,17=6,18=5,40=1/2;
 3/5=1,6=6,7=101,11=2,16=1,25=1,30=1,74=-5/1,2,8,3;
 4//1;
 5/5=2,17=3,38=5/2;
 8/6=1,10=2,108=25/1;
 9/41=25,42=1,48=1/14;
 6/7=2,8=2,9=2,10=2/1;
 99/5=1,9=1/99;
 Leave Link    1 at Tue Feb  5 08:22:15 2013, MaxMem= 1610612736 cpu:       0.7
 (Enter /apps/gaussian/g09_c01/g09/l101.exe)
 ----------------
 CSD ENTRY k01029
 ----------------
 Charge =  0 Multiplicity = 1
 Symbolic Z-Matrix:
 Si(PDBName=Si,ResName=UNK,ResNum=1)  7.32462   3.49406   13.73454 
 C(PDBName=C1,ResName=UNK,ResNum=1)  7.8952    5.27475   9.66925 
 C(PDBName=C2,ResName=UNK,ResNum=1)  6.90248   6.16343   9.19115 
 C(PDBName=C3,ResName=UNK,ResNum=1)  5.82251   6.57504   9.99184 
 H(PDBName=H3,ResName=UNK,ResNum=1)  5.77488   6.2656    10.88727 
 C(PDBName=C4,ResName=UNK,ResNum=1)  4.82732   7.41473   9.52558 
 C(PDBName=C5,ResName=UNK,ResNum=1)  3.72745   7.82639   10.33834 
 H(PDBName=H5,ResName=UNK,ResNum=1)  3.67046   7.52245   11.23778 
 C(PDBName=C6,ResName=UNK,ResNum=1)  2.76583   8.63928   9.85033 
 H(PDBName=H6,ResName=UNK,ResNum=1)  2.04726   8.90783   10.41107 
 C(PDBName=C7,ResName=UNK,ResNum=1)  2.82228   9.09626   8.50712 
 H(PDBName=H7,ResName=UNK,ResNum=1)  2.13484   9.66213   8.17498 
 C(PDBName=C8,ResName=UNK,ResNum=1)  3.83791   8.73828   7.69838 
 H(PDBName=H8,ResName=UNK,ResNum=1)  3.85917   9.05918   6.80471 
 C(PDBName=C9,ResName=UNK,ResNum=1)  4.88648   7.88165   8.1641 
 C(PDBName=C10,ResName=UNK,ResNum=1)  5.95057   7.50193   7.36834 
 H(PDBName=H10,ResName=UNK,ResNum=1)  5.9942    7.82561   6.47545 
 C(PDBName=C11,ResName=UNK,ResNum=1)  6.97287   6.64975   7.83073 
 C(PDBName=C12,ResName=UNK,ResNum=1)  7.7749    4.74422   10.99811 
 C(PDBName=C13,ResName=UNK,ResNum=1)  7.63091   4.266     12.09567 
 C(PDBName=C14,ResName=UNK,ResNum=1)  7.49985   1.62842   13.53715 
 H(PDBName=H14,ResName=UNK,ResNum=1)  7.33158   1.21444   14.43072 
 C(PDBName=C15,ResName=UNK,ResNum=1)  6.46823   1.04703   12.55338 
 H(PDBName=H15A,ResName=UNK,ResNum=1)  6.55448   1.49646   11.68554 
 H(PDBName=H15B,ResName=UNK,ResNum=1)  5.56563   1.1873    12.90736 
 H(PDBName=H15C,ResName=UNK,ResNum=1)  6.62993   0.08717   12.4404 
 C(PDBName=C16,ResName=UNK,ResNum=1)  8.91997   1.24171   13.10837 
 H(PDBName=H16A,ResName=UNK,ResNum=1)  8.97601   0.26859   13.00293 
 H(PDBName=H16B,ResName=UNK,ResNum=1)  9.55799   1.53244   13.79244 
 H(PDBName=H16C,ResName=UNK,ResNum=1)  9.13397   1.67605   12.25761 
 C(PDBName=C17,ResName=UNK,ResNum=1)  8.65152   4.13965   14.89511 
 H(PDBName=H17,ResName=UNK,ResNum=1)  9.52442   3.90315   14.46884 
 C(PDBName=C18,ResName=UNK,ResNum=1)  8.66549   3.47236   16.2714 
 H(PDBName=H18A,ResName=UNK,ResNum=1)  9.47245   3.7436    16.75626 
 H(PDBName=H18B,ResName=UNK,ResNum=1)  8.6619    2.49852   16.16395 
 H(PDBName=H18C,ResName=UNK,ResNum=1)  7.8732    3.74819   16.77634 
 C(PDBName=C19,ResName=UNK,ResNum=1)  8.65419   5.66224   15.03605 
 H(PDBName=H19A,ResName=UNK,ResNum=1)  7.83292   5.94888   15.48773 
 H(PDBName=H19B,ResName=UNK,ResNum=1)  8.69907   6.07195   14.14889 
 H(PDBName=H19C,ResName=UNK,ResNum=1)  9.43158   5.93994   15.56316 
 C(PDBName=C20,ResName=UNK,ResNum=1)  5.57435   3.93663   14.24247 
 H(PDBName=H20,ResName=UNK,ResNum=1)  5.02319   3.48799   13.53705 
 C(PDBName=C21,ResName=UNK,ResNum=1)  5.14579   3.23008   15.48524 
 H(PDBName=H21A,ResName=UNK,ResNum=1)  5.48826   2.31096   15.47498 
 H(PDBName=H21B,ResName=UNK,ResNum=1)  4.167     3.21252   15.5308 
 H(PDBName=H21C,ResName=UNK,ResNum=1)  5.50069   3.7012    16.26802 
 C(PDBName=C22,ResName=UNK,ResNum=1)  5.16917   5.33444   14.12193 
 H(PDBName=H22A,ResName=UNK,ResNum=1)  5.53964   5.71201   13.29601 
 H(PDBName=H22B,ResName=UNK,ResNum=1)  5.50544   5.83869   14.89183 
 H(PDBName=H22C,ResName=UNK,ResNum=1)  4.19131   5.39022   14.09773 
 Si(PDBName=Si,ResName=UNK,ResNum=1)  8.62412   8.03391   2.94371 
 C(PDBName=C1,ResName=UNK,ResNum=1)  8.05348   6.25221   7.009 
 C(PDBName=C2,ResName=UNK,ResNum=1)  9.0462    5.36354   7.4871 
 C(PDBName=C3,ResName=UNK,ResNum=1)  10.12518   4.95198   6.68651 
 H(PDBName=H3,ResName=UNK,ResNum=1)  10.17385   5.26236   5.79098 
 C(PDBName=C4,ResName=UNK,ResNum=1)  11.12136   4.11223   7.15267 
 C(PDBName=C5,ResName=UNK,ResNum=1)  12.22129   3.70158   6.33992 
 H(PDBName=H5,ResName=UNK,ResNum=1)  12.27823   4.00452   5.44047 
 C(PDBName=C6,ResName=UNK,ResNum=1)  13.18291   2.88868   6.82792 
 H(PDBName=H6,ResName=UNK,ResNum=1)  13.90142   2.61913   6.26718 
 C(PDBName=C7,ResName=UNK,ResNum=1)  13.1264   2.43071   8.17113 
 H(PDBName=H7,ResName=UNK,ResNum=1)  13.8139   1.86584   8.50327 
 C(PDBName=C8,ResName=UNK,ResNum=1)  12.11077   2.78868   8.97987 
 H(PDBName=H8,ResName=UNK,ResNum=1)  12.08951   2.46778   9.87354 
 C(PDBName=C9,ResName=UNK,ResNum=1)  11.0622   3.64532   8.51415 
 C(PDBName=C10,ResName=UNK,ResNum=1)  9.99717   4.02609   9.31002 
 H(PDBName=H10,ResName=UNK,ResNum=1)  9.95448   3.70136   10.2028 
 C(PDBName=C11,ResName=UNK,ResNum=1)  8.97481   4.87727   8.84762 
 C(PDBName=C12,ResName=UNK,ResNum=1)  8.17379   6.78274   5.68014 
 C(PDBName=C13,ResName=UNK,ResNum=1)  8.31777   7.26097   4.58258 
 C(PDBName=C14,ResName=UNK,ResNum=1)  8.44883   9.89854   3.1411 
 H(PDBName=H14,ResName=UNK,ResNum=1)  8.61617   10.31358   2.24764 
 C(PDBName=C15,ResName=UNK,ResNum=1)  9.47946   10.47999   4.12497 
 H(PDBName=H15A,ResName=UNK,ResNum=1)  9.3942    10.03051   4.99271 
 H(PDBName=H15B,ResName=UNK,ResNum=1)  10.38306   10.33966   3.7709 
 H(PDBName=H15C,ResName=UNK,ResNum=1)  9.31881   11.44079   4.23785 
 C(PDBName=C16,ResName=UNK,ResNum=1)  7.02872   10.28525   3.56988 
 H(PDBName=H16A,ResName=UNK,ResNum=1)  6.97267   11.25837   3.67532 
 H(PDBName=H16B,ResName=UNK,ResNum=1)  6.39069   9.99453   2.88581 
 H(PDBName=H16C,ResName=UNK,ResNum=1)  6.81372   9.85097   4.42074 
 C(PDBName=C17,ResName=UNK,ResNum=1)  7.29722   7.38831   1.78315 
 H(PDBName=H17,ResName=UNK,ResNum=1)  6.42327   7.62387   2.20951 
 C(PDBName=C18,ResName=UNK,ResNum=1)  7.28226   8.05565   0.40695 
 H(PDBName=H18A,ResName=UNK,ResNum=1)  6.47523   7.78342  -0.07791 
 H(PDBName=H18B,ResName=UNK,ResNum=1)  7.28579   9.0285    0.51441 
 H(PDBName=H18C,ResName=UNK,ResNum=1)  8.07549   7.77878  -0.09808 
 C(PDBName=C19,ResName=UNK,ResNum=1)  7.29455   5.86572   1.64221 
 H(PDBName=H19A,ResName=UNK,ResNum=1)  8.11577   5.57808   1.19052 
 H(PDBName=H19B,ResName=UNK,ResNum=1)  7.24962   5.45501   2.52936 
 H(PDBName=H19C,ResName=UNK,ResNum=1)  6.51716   5.58803   1.11509 
 C(PDBName=C20,ResName=UNK,ResNum=1)  10.37439   7.59133   2.43578 
 H(PDBName=H20,ResName=UNK,ResNum=1)  10.92549   8.03897   3.1412 
 C(PDBName=C21,ResName=UNK,ResNum=1)  10.80295   8.29788   1.19302 
 H(PDBName=H21A,ResName=UNK,ResNum=1)  10.45943   9.21606   1.20337 
 H(PDBName=H21B,ResName=UNK,ResNum=1)  11.78169   8.31444   1.14745 
 H(PDBName=H21C,ResName=UNK,ResNum=1)  10.44805   7.82676   0.41024 
 C(PDBName=C22,ResName=UNK,ResNum=1)  10.77857   6.19358   2.55643 
 H(PDBName=H22A,ResName=UNK,ResNum=1)  10.40905   5.81495   3.38224 
 H(PDBName=H22B,ResName=UNK,ResNum=1)  10.44225   5.68833   1.78652 
 H(PDBName=H22C,ResName=UNK,ResNum=1)  11.75738   6.13674   2.58052 
 Si(PDBName=Si,ResName=UNK,ResNum=1)  10.6438   3.37033   29.9325 
 C(PDBName=C1,ResName=UNK,ResNum=1)  11.2144   5.15103   25.8672 
 C(PDBName=C2,ResName=UNK,ResNum=1)  10.2217   6.0397    25.3891 
 C(PDBName=C3,ResName=UNK,ResNum=1)  9.14168   6.45131   26.1898 
 H(PDBName=H3,ResName=UNK,ResNum=1)  9.09405   6.14187   27.0852 
 C(PDBName=C4,ResName=UNK,ResNum=1)  8.14649   7.291     25.7235 
 C(PDBName=C5,ResName=UNK,ResNum=1)  7.04661   7.70266   26.5363 
 H(PDBName=H5,ResName=UNK,ResNum=1)  6.98963   7.39872   27.4357 
 C(PDBName=C6,ResName=UNK,ResNum=1)  6.085     8.51555   26.0483 
 H(PDBName=H6,ResName=UNK,ResNum=1)  5.36643   8.7841    26.609 
 C(PDBName=C7,ResName=UNK,ResNum=1)  6.14145   8.97253   24.7051 
 H(PDBName=H7,ResName=UNK,ResNum=1)  5.45401   9.5384    24.3729 
 C(PDBName=C8,ResName=UNK,ResNum=1)  7.15708   8.61456   23.8963 
 H(PDBName=H8,ResName=UNK,ResNum=1)  7.17834   8.93546   23.0027 
 C(PDBName=C9,ResName=UNK,ResNum=1)  8.20565   7.75792   24.3621 
 C(PDBName=C10,ResName=UNK,ResNum=1)  9.26974   7.3782    23.5663 
 H(PDBName=H10,ResName=UNK,ResNum=1)  9.31337   7.70188   22.6734 
 C(PDBName=C11,ResName=UNK,ResNum=1)  10.292    6.52603   24.0287 
 C(PDBName=C12,ResName=UNK,ResNum=1)  11.0941   4.6205    27.1961 
 C(PDBName=C13,ResName=UNK,ResNum=1)  10.9501   4.14227   28.2936 
 C(PDBName=C14,ResName=UNK,ResNum=1)  10.819    1.50469   29.7351 
 H(PDBName=H14,ResName=UNK,ResNum=1)  10.6507   1.09071   30.6287 
 C(PDBName=C15,ResName=UNK,ResNum=1)  9.7874    0.9233    28.7513 
 H(PDBName=H15A,ResName=UNK,ResNum=1)  9.87365   1.37273   27.8835 
 H(PDBName=H15B,ResName=UNK,ResNum=1)  8.8848    1.06358   29.1053 
 H(PDBName=H15C,ResName=UNK,ResNum=1)  9.94909  -0.03656   28.6384 
 C(PDBName=C16,ResName=UNK,ResNum=1)  12.2391   1.11798   29.3063 
 H(PDBName=H16A,ResName=UNK,ResNum=1)  12.2952   0.14486   29.2009 
 H(PDBName=H16B,ResName=UNK,ResNum=1)  12.8772   1.40871   29.9904 
 H(PDBName=H16C,ResName=UNK,ResNum=1)  12.4531   1.55232   28.4556 
 C(PDBName=C17,ResName=UNK,ResNum=1)  11.9707   4.01592   31.0931 
 H(PDBName=H17,ResName=UNK,ResNum=1)  12.8436   3.77942   30.6668 
 C(PDBName=C18,ResName=UNK,ResNum=1)  11.9847   3.34864   32.4694 
 H(PDBName=H18A,ResName=UNK,ResNum=1)  12.7916   3.61987   32.9542 
 H(PDBName=H18B,ResName=UNK,ResNum=1)  11.9811   2.37479   32.3619 
 H(PDBName=H18C,ResName=UNK,ResNum=1)  11.1924   3.62446   32.9743 
 C(PDBName=C19,ResName=UNK,ResNum=1)  11.9734   5.53851   31.234 
 H(PDBName=H19A,ResName=UNK,ResNum=1)  11.1521   5.82516   31.6857 
 H(PDBName=H19B,ResName=UNK,ResNum=1)  12.0182   5.94823   30.3469 
 H(PDBName=H19C,ResName=UNK,ResNum=1)  12.7507   5.81621   31.7611 
 C(PDBName=C20,ResName=UNK,ResNum=1)  8.89352   3.81291   30.4404 
 H(PDBName=H20,ResName=UNK,ResNum=1)  8.34236   3.36426   29.735 
 C(PDBName=C21,ResName=UNK,ResNum=1)  8.46496   3.10635   31.6832 
 H(PDBName=H21A,ResName=UNK,ResNum=1)  8.80743   2.18723   31.6729 
 H(PDBName=H21B,ResName=UNK,ResNum=1)  7.48616   3.0888    31.7288 
 H(PDBName=H21C,ResName=UNK,ResNum=1)  8.81986   3.57747   32.466 
 C(PDBName=C22,ResName=UNK,ResNum=1)  8.48834   5.21071   30.3199 
 H(PDBName=H22A,ResName=UNK,ResNum=1)  8.85881   5.58828   29.494 
 H(PDBName=H22B,ResName=UNK,ResNum=1)  8.82461   5.71496   31.0898 
 H(PDBName=H22C,ResName=UNK,ResNum=1)  7.51048   5.26649   30.2957 
 Si(PDBName=Si,ResName=UNK,ResNum=1)  11.9433   7.91018   19.1417 
 C(PDBName=C1,ResName=UNK,ResNum=1)  11.3727   6.12848   23.207 
 C(PDBName=C2,ResName=UNK,ResNum=1)  12.3654   5.23981   23.6851 
 C(PDBName=C3,ResName=UNK,ResNum=1)  13.4443   4.82825   22.8845 
 H(PDBName=H3,ResName=UNK,ResNum=1)  13.493    5.13864   21.9889 
 C(PDBName=C4,ResName=UNK,ResNum=1)  14.4405   3.98851   23.3506 
 C(PDBName=C5,ResName=UNK,ResNum=1)  15.5405   3.57785   22.5379 
 H(PDBName=H5,ResName=UNK,ResNum=1)  15.5974   3.88079   21.6384 
 C(PDBName=C6,ResName=UNK,ResNum=1)  16.5021   2.76495   23.0259 
 H(PDBName=H6,ResName=UNK,ResNum=1)  17.2206   2.49541   22.4651 
 C(PDBName=C7,ResName=UNK,ResNum=1)  16.4456   2.30698   24.3691 
 H(PDBName=H7,ResName=UNK,ResNum=1)  17.1331   1.74211   24.7012 
 C(PDBName=C8,ResName=UNK,ResNum=1)  15.4299   2.66495   25.1778 
 H(PDBName=H8,ResName=UNK,ResNum=1)  15.4087   2.34405   26.0715 
 C(PDBName=C9,ResName=UNK,ResNum=1)  14.3814   3.52159   24.7121 
 C(PDBName=C10,ResName=UNK,ResNum=1)  13.3163   3.90236   25.508 
 H(PDBName=H10,ResName=UNK,ResNum=1)  13.2736   3.57763   26.4008 
 C(PDBName=C11,ResName=UNK,ResNum=1)  12.294    4.75354   25.0456 
 C(PDBName=C12,ResName=UNK,ResNum=1)  11.493    6.65901   21.8781 
 C(PDBName=C13,ResName=UNK,ResNum=1)  11.6369   7.13724   20.7805 
 C(PDBName=C14,ResName=UNK,ResNum=1)  11.768    9.77481   19.3391 
 H(PDBName=H14,ResName=UNK,ResNum=1)  11.9353   10.1898   18.4456 
 C(PDBName=C15,ResName=UNK,ResNum=1)  12.7986   10.3563   20.3229 
 H(PDBName=H15A,ResName=UNK,ResNum=1)  12.7134   9.90678   21.1907 
 H(PDBName=H15B,ResName=UNK,ResNum=1)  13.7022   10.2159   19.9689 
 H(PDBName=H15C,ResName=UNK,ResNum=1)  12.638    11.3171   20.4358 
 C(PDBName=C16,ResName=UNK,ResNum=1)  10.3479   10.1615   19.7678 
 H(PDBName=H16A,ResName=UNK,ResNum=1)  10.2918   11.1346   19.8733 
 H(PDBName=H16B,ResName=UNK,ResNum=1)  9.70986   9.8708    19.0838 
 H(PDBName=H16C,ResName=UNK,ResNum=1)  10.1329   9.72725   20.6187 
 C(PDBName=C17,ResName=UNK,ResNum=1)  10.6164   7.26458   17.9811 
 H(PDBName=H17,ResName=UNK,ResNum=1)  9.74244   7.50014   18.4075 
 C(PDBName=C18,ResName=UNK,ResNum=1)  10.6014   7.93193   16.6049 
 H(PDBName=H18A,ResName=UNK,ResNum=1)  9.7944    7.65969   16.1201 
 H(PDBName=H18B,ResName=UNK,ResNum=1)  10.605    8.90477   16.7124 
 H(PDBName=H18C,ResName=UNK,ResNum=1)  11.3947   7.65505   16.0999 
 C(PDBName=C19,ResName=UNK,ResNum=1)  10.6137   5.74199   17.8402 
 H(PDBName=H19A,ResName=UNK,ResNum=1)  11.4349   5.45435   17.3885 
 H(PDBName=H19B,ResName=UNK,ResNum=1)  10.5688   5.33128   18.7273 
 H(PDBName=H19C,ResName=UNK,ResNum=1)  9.83633   5.4643    17.3131 
 C(PDBName=C20,ResName=UNK,ResNum=1)  13.6936   7.4676    18.6337 
 H(PDBName=H20,ResName=UNK,ResNum=1)  14.2447   7.91524   19.3392 
 C(PDBName=C21,ResName=UNK,ResNum=1)  14.1221   8.17416   17.391 
 H(PDBName=H21A,ResName=UNK,ResNum=1)  13.7786   9.09233   17.4013 
 H(PDBName=H21B,ResName=UNK,ResNum=1)  15.1009   8.19071   17.3454 
 H(PDBName=H21C,ResName=UNK,ResNum=1)  13.7672   7.70303   16.6082 
 C(PDBName=C22,ResName=UNK,ResNum=1)  14.0977   6.06985   18.7544 
 H(PDBName=H22A,ResName=UNK,ResNum=1)  13.7282   5.69123   19.5802 
 H(PDBName=H22B,ResName=UNK,ResNum=1)  13.7614   5.56461   17.9845 
 H(PDBName=H22C,ResName=UNK,ResNum=1)  15.0765   6.01301   18.7785 
 
 NAtoms=    200 NQM=        0 NQMF=       0 NMMI=    200 NMMIF=      0
                NMic=       0 NMicF=      0.
                    Isotopes and Nuclear Properties:
 (Nuclear quadrupole moments (NQMom) in fm**2, nuclear magnetic moments (NMagM)
  in nuclear magnetons)

  Atom         1           2           3           4           5           6           7           8           9          10
 IAtWgt=          28          12          12          12           1          12          12           1          12           1
 AtmWgt=  27.9769284  12.0000000  12.0000000  12.0000000   1.0078250  12.0000000  12.0000000   1.0078250  12.0000000   1.0078250
 NucSpn=           0           0           0           0           1           0           0           1           0           1
 AtZEff=   0.0000000   0.0000000   0.0000000   0.0000000   0.0000000   0.0000000   0.0000000   0.0000000   0.0000000   0.0000000
 NQMom=    0.0000000   0.0000000   0.0000000   0.0000000   0.0000000   0.0000000   0.0000000   0.0000000   0.0000000   0.0000000
 NMagM=    0.0000000   0.0000000   0.0000000   0.0000000   2.7928460   0.0000000   0.0000000   2.7928460   0.0000000   2.7928460

  Atom        11          12          13          14          15          16          17          18          19          20
 IAtWgt=          12           1          12           1          12          12           1          12          12          12
 AtmWgt=  12.0000000   1.0078250  12.0000000   1.0078250  12.0000000  12.0000000   1.0078250  12.0000000  12.0000000  12.0000000
 NucSpn=           0           1           0           1           0           0           1           0           0           0
 AtZEff=   0.0000000   0.0000000   0.0000000   0.0000000   0.0000000   0.0000000   0.0000000   0.0000000   0.0000000   0.0000000
 NQMom=    0.0000000   0.0000000   0.0000000   0.0000000   0.0000000   0.0000000   0.0000000   0.0000000   0.0000000   0.0000000
 NMagM=    0.0000000   2.7928460   0.0000000   2.7928460   0.0000000   0.0000000   2.7928460   0.0000000   0.0000000   0.0000000

  Atom        21          22          23          24          25          26          27          28          29          30
 IAtWgt=          12           1          12           1           1           1          12           1           1           1
 AtmWgt=  12.0000000   1.0078250  12.0000000   1.0078250   1.0078250   1.0078250  12.0000000   1.0078250   1.0078250   1.0078250
 NucSpn=           0           1           0           1           1           1           0           1           1           1
 AtZEff=   0.0000000   0.0000000   0.0000000   0.0000000   0.0000000   0.0000000   0.0000000   0.0000000   0.0000000   0.0000000
 NQMom=    0.0000000   0.0000000   0.0000000   0.0000000   0.0000000   0.0000000   0.0000000   0.0000000   0.0000000   0.0000000
 NMagM=    0.0000000   2.7928460   0.0000000   2.7928460   2.7928460   2.7928460   0.0000000   2.7928460   2.7928460   2.7928460

  Atom        31          32          33          34          35          36          37          38          39          40
 IAtWgt=          12           1          12           1           1           1          12           1           1           1
 AtmWgt=  12.0000000   1.0078250  12.0000000   1.0078250   1.0078250   1.0078250  12.0000000   1.0078250   1.0078250   1.0078250
 NucSpn=           0           1           0           1           1           1           0           1           1           1
 AtZEff=   0.0000000   0.0000000   0.0000000   0.0000000   0.0000000   0.0000000   0.0000000   0.0000000   0.0000000   0.0000000
 NQMom=    0.0000000   0.0000000   0.0000000   0.0000000   0.0000000   0.0000000   0.0000000   0.0000000   0.0000000   0.0000000
 NMagM=    0.0000000   2.7928460   0.0000000   2.7928460   2.7928460   2.7928460   0.0000000   2.7928460   2.7928460   2.7928460

  Atom        41          42          43          44          45          46          47          48          49          50
 IAtWgt=          12           1          12           1           1           1          12           1           1           1
 AtmWgt=  12.0000000   1.0078250  12.0000000   1.0078250   1.0078250   1.0078250  12.0000000   1.0078250   1.0078250   1.0078250
 NucSpn=           0           1           0           1           1           1           0           1           1           1
 AtZEff=   0.0000000   0.0000000   0.0000000   0.0000000   0.0000000   0.0000000   0.0000000   0.0000000   0.0000000   0.0000000
 NQMom=    0.0000000   0.0000000   0.0000000   0.0000000   0.0000000   0.0000000   0.0000000   0.0000000   0.0000000   0.0000000
 NMagM=    0.0000000   2.7928460   0.0000000   2.7928460   2.7928460   2.7928460   0.0000000   2.7928460   2.7928460   2.7928460

  Atom        51          52          53          54          55          56          57          58          59          60
 IAtWgt=          28          12          12          12           1          12          12           1          12           1
 AtmWgt=  27.9769284  12.0000000  12.0000000  12.0000000   1.0078250  12.0000000  12.0000000   1.0078250  12.0000000   1.0078250
 NucSpn=           0           0           0           0           1           0           0           1           0           1
 AtZEff=   0.0000000   0.0000000   0.0000000   0.0000000   0.0000000   0.0000000   0.0000000   0.0000000   0.0000000   0.0000000
 NQMom=    0.0000000   0.0000000   0.0000000   0.0000000   0.0000000   0.0000000   0.0000000   0.0000000   0.0000000   0.0000000
 NMagM=    0.0000000   0.0000000   0.0000000   0.0000000   2.7928460   0.0000000   0.0000000   2.7928460   0.0000000   2.7928460

  Atom        61          62          63          64          65          66          67          68          69          70
 IAtWgt=          12           1          12           1          12          12           1          12          12          12
 AtmWgt=  12.0000000   1.0078250  12.0000000   1.0078250  12.0000000  12.0000000   1.0078250  12.0000000  12.0000000  12.0000000
 NucSpn=           0           1           0           1           0           0           1           0           0           0
 AtZEff=   0.0000000   0.0000000   0.0000000   0.0000000   0.0000000   0.0000000   0.0000000   0.0000000   0.0000000   0.0000000
 NQMom=    0.0000000   0.0000000   0.0000000   0.0000000   0.0000000   0.0000000   0.0000000   0.0000000   0.0000000   0.0000000
 NMagM=    0.0000000   2.7928460   0.0000000   2.7928460   0.0000000   0.0000000   2.7928460   0.0000000   0.0000000   0.0000000

  Atom        71          72          73          74          75          76          77          78          79          80
 IAtWgt=          12           1          12           1           1           1          12           1           1           1
 AtmWgt=  12.0000000   1.0078250  12.0000000   1.0078250   1.0078250   1.0078250  12.0000000   1.0078250   1.0078250   1.0078250
 NucSpn=           0           1           0           1           1           1           0           1           1           1
 AtZEff=   0.0000000   0.0000000   0.0000000   0.0000000   0.0000000   0.0000000   0.0000000   0.0000000   0.0000000   0.0000000
 NQMom=    0.0000000   0.0000000   0.0000000   0.0000000   0.0000000   0.0000000   0.0000000   0.0000000   0.0000000   0.0000000
 NMagM=    0.0000000   2.7928460   0.0000000   2.7928460   2.7928460   2.7928460   0.0000000   2.7928460   2.7928460   2.7928460

  Atom        81          82          83          84          85          86          87          88          89          90
 IAtWgt=          12           1          12           1           1           1          12           1           1           1
 AtmWgt=  12.0000000   1.0078250  12.0000000   1.0078250   1.0078250   1.0078250  12.0000000   1.0078250   1.0078250   1.0078250
 NucSpn=           0           1           0           1           1           1           0           1           1           1
 AtZEff=   0.0000000   0.0000000   0.0000000   0.0000000   0.0000000   0.0000000   0.0000000   0.0000000   0.0000000   0.0000000
 NQMom=    0.0000000   0.0000000   0.0000000   0.0000000   0.0000000   0.0000000   0.0000000   0.0000000   0.0000000   0.0000000
 NMagM=    0.0000000   2.7928460   0.0000000   2.7928460   2.7928460   2.7928460   0.0000000   2.7928460   2.7928460   2.7928460

  Atom        91          92          93          94          95          96          97          98          99         100
 IAtWgt=          12           1          12           1           1           1          12           1           1           1
 AtmWgt=  12.0000000   1.0078250  12.0000000   1.0078250   1.0078250   1.0078250  12.0000000   1.0078250   1.0078250   1.0078250
 NucSpn=           0           1           0           1           1           1           0           1           1           1
 AtZEff=   0.0000000   0.0000000   0.0000000   0.0000000   0.0000000   0.0000000   0.0000000   0.0000000   0.0000000   0.0000000
 NQMom=    0.0000000   0.0000000   0.0000000   0.0000000   0.0000000   0.0000000   0.0000000   0.0000000   0.0000000   0.0000000
 NMagM=    0.0000000   2.7928460   0.0000000   2.7928460   2.7928460   2.7928460   0.0000000   2.7928460   2.7928460   2.7928460

  Atom       101         102         103         104         105         106         107         108         109         110
 IAtWgt=          28          12          12          12           1          12          12           1          12           1
 AtmWgt=  27.9769284  12.0000000  12.0000000  12.0000000   1.0078250  12.0000000  12.0000000   1.0078250  12.0000000   1.0078250
 NucSpn=           0           0           0           0           1           0           0           1           0           1
 AtZEff=   0.0000000   0.0000000   0.0000000   0.0000000   0.0000000   0.0000000   0.0000000   0.0000000   0.0000000   0.0000000
 NQMom=    0.0000000   0.0000000   0.0000000   0.0000000   0.0000000   0.0000000   0.0000000   0.0000000   0.0000000   0.0000000
 NMagM=    0.0000000   0.0000000   0.0000000   0.0000000   2.7928460   0.0000000   0.0000000   2.7928460   0.0000000   2.7928460

  Atom       111         112         113         114         115         116         117         118         119         120
 IAtWgt=          12           1          12           1          12          12           1          12          12          12
 AtmWgt=  12.0000000   1.0078250  12.0000000   1.0078250  12.0000000  12.0000000   1.0078250  12.0000000  12.0000000  12.0000000
 NucSpn=           0           1           0           1           0           0           1           0           0           0
 AtZEff=   0.0000000   0.0000000   0.0000000   0.0000000   0.0000000   0.0000000   0.0000000   0.0000000   0.0000000   0.0000000
 NQMom=    0.0000000   0.0000000   0.0000000   0.0000000   0.0000000   0.0000000   0.0000000   0.0000000   0.0000000   0.0000000
 NMagM=    0.0000000   2.7928460   0.0000000   2.7928460   0.0000000   0.0000000   2.7928460   0.0000000   0.0000000   0.0000000

  Atom       121         122         123         124         125         126         127         128         129         130
 IAtWgt=          12           1          12           1           1           1          12           1           1           1
 AtmWgt=  12.0000000   1.0078250  12.0000000   1.0078250   1.0078250   1.0078250  12.0000000   1.0078250   1.0078250   1.0078250
 NucSpn=           0           1           0           1           1           1           0           1           1           1
 AtZEff=   0.0000000   0.0000000   0.0000000   0.0000000   0.0000000   0.0000000   0.0000000   0.0000000   0.0000000   0.0000000
 NQMom=    0.0000000   0.0000000   0.0000000   0.0000000   0.0000000   0.0000000   0.0000000   0.0000000   0.0000000   0.0000000
 NMagM=    0.0000000   2.7928460   0.0000000   2.7928460   2.7928460   2.7928460   0.0000000   2.7928460   2.7928460   2.7928460

  Atom       131         132         133         134         135         136         137         138         139         140
 IAtWgt=          12           1          12           1           1           1          12           1           1           1
 AtmWgt=  12.0000000   1.0078250  12.0000000   1.0078250   1.0078250   1.0078250  12.0000000   1.0078250   1.0078250   1.0078250
 NucSpn=           0           1           0           1           1           1           0           1           1           1
 AtZEff=   0.0000000   0.0000000   0.0000000   0.0000000   0.0000000   0.0000000   0.0000000   0.0000000   0.0000000   0.0000000
 NQMom=    0.0000000   0.0000000   0.0000000   0.0000000   0.0000000   0.0000000   0.0000000   0.0000000   0.0000000   0.0000000
 NMagM=    0.0000000   2.7928460   0.0000000   2.7928460   2.7928460   2.7928460   0.0000000   2.7928460   2.7928460   2.7928460

  Atom       141         142         143         144         145         146         147         148         149         150
 IAtWgt=          12           1          12           1           1           1          12           1           1           1
 AtmWgt=  12.0000000   1.0078250  12.0000000   1.0078250   1.0078250   1.0078250  12.0000000   1.0078250   1.0078250   1.0078250
 NucSpn=           0           1           0           1           1           1           0           1           1           1
 AtZEff=   0.0000000   0.0000000   0.0000000   0.0000000   0.0000000   0.0000000   0.0000000   0.0000000   0.0000000   0.0000000
 NQMom=    0.0000000   0.0000000   0.0000000   0.0000000   0.0000000   0.0000000   0.0000000   0.0000000   0.0000000   0.0000000
 NMagM=    0.0000000   2.7928460   0.0000000   2.7928460   2.7928460   2.7928460   0.0000000   2.7928460   2.7928460   2.7928460

  Atom       151         152         153         154         155         156         157         158         159         160
 IAtWgt=          28          12          12          12           1          12          12           1          12           1
 AtmWgt=  27.9769284  12.0000000  12.0000000  12.0000000   1.0078250  12.0000000  12.0000000   1.0078250  12.0000000   1.0078250
 NucSpn=           0           0           0           0           1           0           0           1           0           1
 AtZEff=   0.0000000   0.0000000   0.0000000   0.0000000   0.0000000   0.0000000   0.0000000   0.0000000   0.0000000   0.0000000
 NQMom=    0.0000000   0.0000000   0.0000000   0.0000000   0.0000000   0.0000000   0.0000000   0.0000000   0.0000000   0.0000000
 NMagM=    0.0000000   0.0000000   0.0000000   0.0000000   2.7928460   0.0000000   0.0000000   2.7928460   0.0000000   2.7928460

  Atom       161         162         163         164         165         166         167         168         169         170
 IAtWgt=          12           1          12           1          12          12           1          12          12          12
 AtmWgt=  12.0000000   1.0078250  12.0000000   1.0078250  12.0000000  12.0000000   1.0078250  12.0000000  12.0000000  12.0000000
 NucSpn=           0           1           0           1           0           0           1           0           0           0
 AtZEff=   0.0000000   0.0000000   0.0000000   0.0000000   0.0000000   0.0000000   0.0000000   0.0000000   0.0000000   0.0000000
 NQMom=    0.0000000   0.0000000   0.0000000   0.0000000   0.0000000   0.0000000   0.0000000   0.0000000   0.0000000   0.0000000
 NMagM=    0.0000000   2.7928460   0.0000000   2.7928460   0.0000000   0.0000000   2.7928460   0.0000000   0.0000000   0.0000000

  Atom       171         172         173         174         175         176         177         178         179         180
 IAtWgt=          12           1          12           1           1           1          12           1           1           1
 AtmWgt=  12.0000000   1.0078250  12.0000000   1.0078250   1.0078250   1.0078250  12.0000000   1.0078250   1.0078250   1.0078250
 NucSpn=           0           1           0           1           1           1           0           1           1           1
 AtZEff=   0.0000000   0.0000000   0.0000000   0.0000000   0.0000000   0.0000000   0.0000000   0.0000000   0.0000000   0.0000000
 NQMom=    0.0000000   0.0000000   0.0000000   0.0000000   0.0000000   0.0000000   0.0000000   0.0000000   0.0000000   0.0000000
 NMagM=    0.0000000   2.7928460   0.0000000   2.7928460   2.7928460   2.7928460   0.0000000   2.7928460   2.7928460   2.7928460

  Atom       181         182         183         184         185         186         187         188         189         190
 IAtWgt=          12           1          12           1           1           1          12           1           1           1
 AtmWgt=  12.0000000   1.0078250  12.0000000   1.0078250   1.0078250   1.0078250  12.0000000   1.0078250   1.0078250   1.0078250
 NucSpn=           0           1           0           1           1           1           0           1           1           1
 AtZEff=   0.0000000   0.0000000   0.0000000   0.0000000   0.0000000   0.0000000   0.0000000   0.0000000   0.0000000   0.0000000
 NQMom=    0.0000000   0.0000000   0.0000000   0.0000000   0.0000000   0.0000000   0.0000000   0.0000000   0.0000000   0.0000000
 NMagM=    0.0000000   2.7928460   0.0000000   2.7928460   2.7928460   2.7928460   0.0000000   2.7928460   2.7928460   2.7928460

  Atom       191         192         193         194         195         196         197         198         199         200
 IAtWgt=          12           1          12           1           1           1          12           1           1           1
 AtmWgt=  12.0000000   1.0078250  12.0000000   1.0078250   1.0078250   1.0078250  12.0000000   1.0078250   1.0078250   1.0078250
 NucSpn=           0           1           0           1           1           1           0           1           1           1
 AtZEff=   0.0000000   0.0000000   0.0000000   0.0000000   0.0000000   0.0000000   0.0000000   0.0000000   0.0000000   0.0000000
 NQMom=    0.0000000   0.0000000   0.0000000   0.0000000   0.0000000   0.0000000   0.0000000   0.0000000   0.0000000   0.0000000
 NMagM=    0.0000000   2.7928460   0.0000000   2.7928460   2.7928460   2.7928460   0.0000000   2.7928460   2.7928460   2.7928460
 Residue   1 PDB Number     1_0 UNK charge    0.00000000 ave dist        0.000
 Leave Link  101 at Tue Feb  5 08:22:15 2013, MaxMem= 1610612736 cpu:       2.2
 (Enter /apps/gaussian/g09_c01/g09/l202.exe)
 Symmetry turned off by external request.
 Stoichiometry    C88H108Si4
 Framework group  C1[X(C88H108Si4)]
 Deg. of freedom   594
 Full point group                 C1      NOp   1
                          Input orientation:                          
 ---------------------------------------------------------------------
 Center     Atomic      Atomic             Coordinates (Angstroms)
 Number     Number       Type             X           Y           Z
 ---------------------------------------------------------------------
      1         14           0        7.324622    3.494057   13.734540
      2          6           0        7.895200    5.274755    9.669250
      3          6           0        6.902481    6.163429    9.191150
      4          6           0        5.822514    6.575043    9.991839
      5          1           0        5.774883    6.265600   10.887273
      6          6           0        4.827323    7.414731    9.525582
      7          6           0        3.727446    7.826388   10.338336
      8          1           0        3.670457    7.522450   11.237785
      9          6           0        2.765829    8.639283    9.850334
     10          1           0        2.047264    8.907831   10.411066
     11          6           0        2.822281    9.096259    8.507123
     12          1           0        2.134840    9.662127    8.174980
     13          6           0        3.837914    8.738285    7.698377
     14          1           0        3.859170    9.059184    6.804715
     15          6           0        4.886485    7.881647    8.164099
     16          6           0        5.950572    7.501932    7.368337
     17          1           0        5.994204    7.825606    6.475454
     18          6           0        6.972875    6.649754    7.830727
     19          6           0        7.774897    4.744225   10.998113
     20          6           0        7.630909    4.265999   12.095672
     21          6           0        7.499851    1.628423   13.537146
     22          1           0        7.331579    1.214442   14.430715
     23          6           0        6.468229    1.047033   12.553383
     24          1           0        6.554478    1.496460   11.685536
     25          1           0        5.565627    1.187303   12.907355
     26          1           0        6.629925    0.087171   12.440401
     27          6           0        8.919967    1.241712   13.108371
     28          1           0        8.976011    0.268591   13.002933
     29          1           0        9.557995    1.532438   13.792439
     30          1           0        9.133966    1.676045   12.257614
     31          6           0        8.651520    4.139651   14.895107
     32          1           0        9.524416    3.903152   14.468839
     33          6           0        8.665488    3.472364   16.271401
     34          1           0        9.472455    3.743598   16.756263
     35          1           0        8.661897    2.498519   16.163946
     36          1           0        7.873196    3.748188   16.776335
     37          6           0        8.654191    5.662241   15.036047
     38          1           0        7.832916    5.948884   15.487729
     39          1           0        8.699067    6.071954   14.148887
     40          1           0        9.431580    5.939937   15.563164
     41          6           0        5.574349    3.936634   14.242474
     42          1           0        5.023189    3.487993   13.537053
     43          6           0        5.145792    3.230079   15.485239
     44          1           0        5.488258    2.310959   15.474981
     45          1           0        4.166996    3.212523   15.530797
     46          1           0        5.500689    3.701203   16.268019
     47          6           0        5.169171    5.334439   14.121928
     48          1           0        5.539637    5.712011   13.296012
     49          1           0        5.505438    5.838685   14.891831
     50          1           0        4.191306    5.390222   14.097732
     51         14           0        8.624116    8.033907    2.943714
     52          6           0        8.053483    6.252211    7.009000
     53          6           0        9.046202    5.363536    7.487101
     54          6           0       10.125175    4.951977    6.686513
     55          1           0       10.173854    5.262364    5.790982
     56          6           0       11.121360    4.112234    7.152669
     57          6           0       12.221292    3.701576    6.339919
     58          1           0       12.278226    4.004515    5.440466
     59          6           0       13.182908    2.888681    6.827921
     60          1           0       13.901418    2.619134    6.267184
     61          6           0       13.126402    2.430707    8.171128
     62          1           0       13.813898    1.865837    8.503275
     63          6           0       12.110768    2.788681    8.979874
     64          1           0       12.089513    2.467782    9.873536
     65          6           0       11.062198    3.645319    8.514152
     66          6           0        9.997172    4.026086    9.310019
     67          1           0        9.954479    3.701360   10.202797
     68          6           0        8.974815    4.877265    8.847624
     69          6           0        8.173786    6.782740    5.680137
     70          6           0        8.317774    7.260967    4.582578
     71          6           0        8.448832    9.898543    3.141105
     72          1           0        8.616165   10.313576    2.247640
     73          6           0        9.479460   10.479987    4.124968
     74          1           0        9.394205   10.030505    4.992714
     75          1           0       10.383056   10.339662    3.770896
     76          1           0        9.318812   11.440793    4.237854
     77          6           0        7.028715   10.285254    3.569879
     78          1           0        6.972671   11.258375    3.675318
     79          1           0        6.390688    9.994528    2.885811
     80          1           0        6.813723    9.850974    4.420738
     81          6           0        7.297218    7.388313    1.783147
     82          1           0        6.423273    7.623867    2.209513
     83          6           0        7.282255    8.055654    0.406955
     84          1           0        6.475235    7.783422   -0.077912
     85          1           0        7.285792    9.028500    0.514406
     86          1           0        8.075486    7.778777   -0.098085
     87          6           0        7.294546    5.865723    1.642207
     88          1           0        8.115767    5.578082    1.190522
     89          1           0        7.249615    5.455012    2.529364
     90          1           0        6.517157    5.588027    1.115090
     91          6           0       10.374388    7.591330    2.435781
     92          1           0       10.925493    8.038973    3.141197
     93          6           0       10.802945    8.297884    1.193015
     94          1           0       10.459431    9.216061    1.203371
     95          1           0       11.781687    8.314442    1.147454
     96          1           0       10.448049    7.826761    0.410236
     97          6           0       10.778573    6.193579    2.556428
     98          1           0       10.409046    5.814955    3.382238
     99          1           0       10.442252    5.688334    1.786520
    100          1           0       11.757376    6.136743    2.580518
    101         14           0       10.643800    3.370330   29.932500
    102          6           0       11.214400    5.151030   25.867200
    103          6           0       10.221700    6.039700   25.389100
    104          6           0        9.141680    6.451310   26.189800
    105          1           0        9.094050    6.141870   27.085200
    106          6           0        8.146490    7.291000   25.723500
    107          6           0        7.046610    7.702660   26.536300
    108          1           0        6.989630    7.398720   27.435700
    109          6           0        6.085000    8.515550   26.048300
    110          1           0        5.366430    8.784100   26.609000
    111          6           0        6.141450    8.972530   24.705100
    112          1           0        5.454010    9.538400   24.372900
    113          6           0        7.157080    8.614560   23.896300
    114          1           0        7.178340    8.935460   23.002700
    115          6           0        8.205650    7.757920   24.362100
    116          6           0        9.269740    7.378200   23.566300
    117          1           0        9.313370    7.701880   22.673400
    118          6           0       10.292000    6.526030   24.028700
    119          6           0       11.094100    4.620500   27.196100
    120          6           0       10.950100    4.142270   28.293600
    121          6           0       10.819000    1.504690   29.735100
    122          1           0       10.650700    1.090710   30.628700
    123          6           0        9.787400    0.923304   28.751300
    124          1           0        9.873650    1.372730   27.883500
    125          1           0        8.884800    1.063580   29.105300
    126          1           0        9.949090   -0.036557   28.638400
    127          6           0       12.239100    1.117980   29.306300
    128          1           0       12.295200    0.144863   29.200900
    129          1           0       12.877200    1.408710   29.990400
    130          1           0       12.453100    1.552320   28.455600
    131          6           0       11.970700    4.015920   31.093100
    132          1           0       12.843600    3.779420   30.666800
    133          6           0       11.984700    3.348640   32.469400
    134          1           0       12.791600    3.619870   32.954200
    135          1           0       11.981100    2.374790   32.361900
    136          1           0       11.192400    3.624460   32.974300
    137          6           0       11.973400    5.538510   31.234000
    138          1           0       11.152100    5.825160   31.685700
    139          1           0       12.018200    5.948230   30.346900
    140          1           0       12.750700    5.816210   31.761100
    141          6           0        8.893520    3.812910   30.440400
    142          1           0        8.342360    3.364260   29.735000
    143          6           0        8.464960    3.106350   31.683200
    144          1           0        8.807430    2.187230   31.672900
    145          1           0        7.486160    3.088800   31.728800
    146          1           0        8.819860    3.577470   32.466000
    147          6           0        8.488340    5.210710   30.319900
    148          1           0        8.858810    5.588280   29.494000
    149          1           0        8.824610    5.714960   31.089800
    150          1           0        7.510480    5.266490   30.295700
    151         14           0       11.943300    7.910180   19.141700
    152          6           0       11.372700    6.128480   23.207000
    153          6           0       12.365400    5.239810   23.685100
    154          6           0       13.444300    4.828250   22.884500
    155          1           0       13.493000    5.138640   21.988900
    156          6           0       14.440500    3.988510   23.350600
    157          6           0       15.540500    3.577850   22.537900
    158          1           0       15.597400    3.880790   21.638400
    159          6           0       16.502100    2.764950   23.025900
    160          1           0       17.220600    2.495410   22.465100
    161          6           0       16.445600    2.306980   24.369100
    162          1           0       17.133100    1.742110   24.701200
    163          6           0       15.429900    2.664950   25.177800
    164          1           0       15.408700    2.344050   26.071500
    165          6           0       14.381400    3.521590   24.712100
    166          6           0       13.316300    3.902360   25.508000
    167          1           0       13.273600    3.577630   26.400800
    168          6           0       12.294000    4.753540   25.045600
    169          6           0       11.493000    6.659010   21.878100
    170          6           0       11.636900    7.137240   20.780500
    171          6           0       11.768000    9.774810   19.339100
    172          1           0       11.935300   10.189800   18.445600
    173          6           0       12.798600   10.356300   20.322900
    174          1           0       12.713400    9.906780   21.190700
    175          1           0       13.702200   10.215900   19.968900
    176          1           0       12.638000   11.317100   20.435800
    177          6           0       10.347900   10.161500   19.767800
    178          1           0       10.291800   11.134600   19.873300
    179          1           0        9.709860    9.870800   19.083800
    180          1           0       10.132900    9.727250   20.618700
    181          6           0       10.616400    7.264580   17.981100
    182          1           0        9.742440    7.500140   18.407500
    183          6           0       10.601400    7.931930   16.604900
    184          1           0        9.794400    7.659690   16.120100
    185          1           0       10.605000    8.904770   16.712400
    186          1           0       11.394700    7.655050   16.099900
    187          6           0       10.613700    5.741990   17.840200
    188          1           0       11.434900    5.454350   17.388500
    189          1           0       10.568800    5.331280   18.727300
    190          1           0        9.836330    5.464300   17.313100
    191          6           0       13.693600    7.467600   18.633700
    192          1           0       14.244700    7.915240   19.339200
    193          6           0       14.122100    8.174160   17.391000
    194          1           0       13.778600    9.092330   17.401300
    195          1           0       15.100900    8.190710   17.345400
    196          1           0       13.767200    7.703030   16.608200
    197          6           0       14.097700    6.069850   18.754400
    198          1           0       13.728200    5.691230   19.580200
    199          1           0       13.761400    5.564610   17.984500
    200          1           0       15.076500    6.013010   18.778500
 ---------------------------------------------------------------------
 Rotational constants (GHZ):      0.0309777      0.0043163      0.0041684
 Leave Link  202 at Tue Feb  5 08:22:15 2013, MaxMem= 1610612736 cpu:       0.2
 (Enter /apps/gaussian/g09_c01/g09/l301.exe)
 Standard basis: 6-31G(d,p) (6D, 7F)
 Ernie: Thresh=  0.10000D-02 Tol=  0.10000D-05 Strict=F.
 Integral buffers will be    131072 words long.
 Raffenetti 2 integral format.
 Two-electron integral symmetry is turned off.
  1936 basis functions,  3428 primitive gaussians,  1936 cartesian basis functions
   346 alpha electrons      346 beta electrons
       nuclear repulsion energy     15826.0902233585 Hartrees.
 IExCor=  402 DFT=T Ex+Corr=B3LYP ExCW=0 ScaHFX=  0.200000
 ScaDFX=  0.800000  0.720000  1.000000  0.810000 ScalE2=  1.000000  1.000000
 IRadAn=      0 IRanWt=     -1 IRanGd=            0 ICorTp=0
 NAtoms=  200 NActive=  200 NUniq=  200 SFac= 1.00D+00 NAtFMM=   60 NAOKFM=T Big=T
 Leave Link  301 at Tue Feb  5 08:22:16 2013, MaxMem= 1610612736 cpu:       1.3
 (Enter /apps/gaussian/g09_c01/g09/l302.exe)
 NPDir=0 NMtPBC=     1 NCelOv=     1 NCel=       1 NClECP=     1 NCelD=      1
         NCelK=      1 NCelE2=     1 NClLst=     1 CellRange=     0.0.
 One-electron integrals computed using PRISM.
 NBasis=  1936 RedAO= T  NBF=  1936
 NBsUse=  1936 1.00D-06 NBFU=  1936
 Precomputing XC quadrature grid using
 IXCGrd= 2 IRadAn=           0 IRanWt=          -1 IRanGd=           0 AccXCQ= 0.00D+00.
 NRdTot=   13290 NPtTot=     1707540 NUsed=     1803183 NTot=     1803215
 NSgBfM=  1049  1054  1056  1063  1064 NAtAll=   200   152.
 Leave Link  302 at Tue Feb  5 08:22:31 2013, MaxMem= 1610612736 cpu:     244.1
 (Enter /apps/gaussian/g09_c01/g09/l308.exe)
 Leave Link  308 at Tue Feb  5 08:22:32 2013, MaxMem= 1610612736 cpu:      14.4
 (Enter /apps/gaussian/g09_c01/g09/l303.exe)
 DipDrv:  MaxL=1.
 Leave Link  303 at Tue Feb  5 08:22:33 2013, MaxMem= 1610612736 cpu:      14.6
 (Enter /apps/gaussian/g09_c01/g09/l401.exe)
 Harris functional with IExCor=  402 diagonalized for initial guess.
 ExpMin= 7.78D-02 ExpMax= 1.61D+04 ExpMxC= 2.43D+03 IAcc=2 IRadAn=         4 AccDes= 0.00D+00
 HarFok:  IExCor=  402 AccDes= 0.00D+00 IRadAn=         4 IDoV= 1
 ScaDFX=  1.000000  1.000000  1.000000  1.000000
 FoFCou: FMM=F IPFlag=           0 FMFlag=      100000 FMFlg1=        2001
         NFxFlg=           0 DoJE=T BraDBF=F KetDBF=T FulRan=T
         Omega=  0.000000  0.000000  1.000000  0.000000  0.000000 ICntrl=     500 IOpCl=  0
         NMat0=    1 NMatS0=    1 NMatT0=    0 NMatD0=    1 NMtDS0=    0 NMtDT0=    0
         I1Cent=           4 NGrid=           0.
 Symmetry not used in FoFCou.
 Harris En= -4576.69459058185    
 Leave Link  401 at Tue Feb  5 08:22:50 2013, MaxMem= 1610612736 cpu:     268.1
 (Enter /apps/gaussian/g09_c01/g09/l502.exe)
 Closed shell SCF:
 Requested convergence on RMS density matrix=1.00D-08 within 128 cycles.
 Requested convergence on MAX density matrix=1.00D-06.
 Requested convergence on             energy=1.00D-06.
 No special actions if energy rises.
 Using DIIS extrapolation, IDIIS=  1040.
 Two-electron integral symmetry not used.
      1801370 words used for storage of precomputed grid.
 IEnd=    13106796 IEndB=    13106796 NGot=  1610612736 MDV=  1601272613
 LenX=  1601272613 LenY=  1597522581
 Fock matrices will be formed incrementally for  20 cycles.
 Integral accuracy reduced to 1.0D-05 until final iterations.

 Cycle   1  Pass 0  IDiag  1:
 FoFCou: FMM=T IPFlag=           0 FMFlag=      100000 FMFlg1=        2001
         NFxFlg=           0 DoJE=F BraDBF=F KetDBF=F FulRan=T
         Omega=  0.000000  0.000000  1.000000  0.000000  0.000000 ICntrl=       0 IOpCl=  0
         NMat0=    1 NMatS0=    1 NMatT0=    0 NMatD0=    1 NMtDS0=    0 NMtDT0=    0
         I1Cent=           0 NGrid=           0.
 Symmetry not used in FoFCou.
 FMM levels:  10  Number of levels for PrismC:   9
 E= -4571.73535531512    
 DIIS: error= 3.99D-02 at cycle   1 NSaved=   1.
 NSaved= 1 IEnMin= 1 EnMin= -4571.73535531512     IErMin= 1 ErrMin= 3.99D-02
 ErrMax= 3.99D-02 EMaxC= 1.00D-01 BMatC= 3.34D+00 BMatP= 3.34D+00
 IDIUse=3 WtCom= 6.01D-01 WtEn= 3.99D-01
 Coeff-Com:  0.100D+01
 Coeff-En:   0.100D+01
 Coeff:      0.100D+01
 Gap=     0.085 Goal=   None    Shift=    0.000
 GapD=    0.085 DampG=0.500 DampE=0.500 DampFc=0.2500 IDamp=-1.
 Damping current iteration by 2.50D-01
 RMSDP=2.33D-03 MaxDP=1.61D-01              OVMax= 1.95D-01

 Cycle   2  Pass 0  IDiag  1:
 RMSU=  3.91D-04    CP:  9.75D-01
 E= -4573.00717511817     Delta-E=       -1.271819803052 Rises=F Damp=T
 DIIS: error= 2.32D-02 at cycle   2 NSaved=   2.
 NSaved= 2 IEnMin= 2 EnMin= -4573.00717511817     IErMin= 2 ErrMin= 2.32D-02
 ErrMax= 2.32D-02 EMaxC= 1.00D-01 BMatC= 9.35D-01 BMatP= 3.34D+00
 IDIUse=3 WtCom= 7.68D-01 WtEn= 2.32D-01
 Coeff-Com: -0.988D+00 0.199D+01
 Coeff-En:   0.000D+00 0.100D+01
 Coeff:     -0.759D+00 0.176D+01
 Gap=     0.091 Goal=   None    Shift=    0.000
 RMSDP=1.13D-03 MaxDP=1.52D-01 DE=-1.27D+00 OVMax= 1.70D-01

 Cycle   3  Pass 0  IDiag  1:
 RMSU=  4.75D-04    CP:  9.14D-01  2.41D+00
 E= -4575.16643846791     Delta-E=       -2.159263349735 Rises=F Damp=F
 DIIS: error= 1.27D-02 at cycle   3 NSaved=   3.
 NSaved= 3 IEnMin= 3 EnMin= -4575.16643846791     IErMin= 3 ErrMin= 1.27D-02
 ErrMax= 1.27D-02 EMaxC= 1.00D-01 BMatC= 1.08D-01 BMatP= 9.35D-01
 IDIUse=3 WtCom= 8.73D-01 WtEn= 1.27D-01
 Coeff-Com: -0.357D+00 0.788D+00 0.569D+00
 Coeff-En:   0.000D+00 0.000D+00 0.100D+01
 Coeff:     -0.312D+00 0.689D+00 0.623D+00
 Gap=     0.078 Goal=   None    Shift=    0.000
 RMSDP=3.91D-04 MaxDP=3.79D-02 DE=-2.16D+00 OVMax= 1.18D-01

 Cycle   4  Pass 0  IDiag  1:
 RMSU=  2.40D-04    CP:  9.20D-01  2.31D+00  7.28D-01
 E= -4575.15269436786     Delta-E=        0.013744100048 Rises=F Damp=F
 DIIS: error= 1.30D-02 at cycle   4 NSaved=   4.
 NSaved= 4 IEnMin= 3 EnMin= -4575.16643846791     IErMin= 3 ErrMin= 1.27D-02
 ErrMax= 1.30D-02 EMaxC= 1.00D-01 BMatC= 1.20D-01 BMatP= 1.08D-01
 IDIUse=2 WtCom= 0.00D+00 WtEn= 1.00D+00
 Coeff-En:   0.000D+00 0.000D+00 0.520D+00 0.480D+00
 Coeff:      0.000D+00 0.000D+00 0.520D+00 0.480D+00
 Gap=     0.075 Goal=   None    Shift=    0.000
 RMSDP=2.32D-04 MaxDP=2.95D-02 DE= 1.37D-02 OVMax= 8.09D-02

 Cycle   5  Pass 0  IDiag  1:
 RMSU=  7.44D-05    CP:  9.21D-01  2.23D+00  8.37D-01  4.45D-01
 E= -4575.27914539684     Delta-E=       -0.126451028977 Rises=F Damp=F
 DIIS: error= 2.36D-03 at cycle   5 NSaved=   5.
 NSaved= 5 IEnMin= 5 EnMin= -4575.27914539684     IErMin= 5 ErrMin= 2.36D-03
 ErrMax= 2.36D-03 EMaxC= 1.00D-01 BMatC= 1.56D-02 BMatP= 1.08D-01
 IDIUse=3 WtCom= 9.76D-01 WtEn= 2.36D-02
 Coeff-Com: -0.209D-01 0.492D-01 0.248D+00 0.291D+00 0.432D+00
 Coeff-En:   0.000D+00 0.000D+00 0.000D+00 0.107D+00 0.893D+00
 Coeff:     -0.205D-01 0.480D-01 0.243D+00 0.287D+00 0.443D+00
 Gap=     0.072 Goal=   None    Shift=    0.000
 RMSDP=7.75D-05 MaxDP=1.36D-02 DE=-1.26D-01 OVMax= 1.95D-02

 Cycle   6  Pass 0  IDiag  1:
 RMSU=  2.41D-05    CP:  9.19D-01  2.29D+00  8.49D-01  4.85D-01  4.43D-01
 E= -4575.29392686006     Delta-E=       -0.014781463222 Rises=F Damp=F
 DIIS: error= 8.64D-04 at cycle   6 NSaved=   6.
 NSaved= 6 IEnMin= 6 EnMin= -4575.29392686006     IErMin= 6 ErrMin= 8.64D-04
 ErrMax= 8.64D-04 EMaxC= 1.00D-01 BMatC= 8.90D-04 BMatP= 1.56D-02
 IDIUse=3 WtCom= 9.91D-01 WtEn= 8.64D-03
 Coeff-Com: -0.791D-02 0.124D-01 0.952D-01 0.135D+00 0.281D+00 0.484D+00
 Coeff-En:   0.000D+00 0.000D+00 0.000D+00 0.000D+00 0.000D+00 0.100D+01
 Coeff:     -0.784D-02 0.123D-01 0.944D-01 0.134D+00 0.278D+00 0.489D+00
 Gap=     0.073 Goal=   None    Shift=    0.000
 RMSDP=2.06D-05 MaxDP=2.72D-03 DE=-1.48D-02 OVMax= 5.86D-03

 Cycle   7  Pass 0  IDiag  1:
 RMSU=  9.08D-06    CP:  9.19D-01  2.29D+00  8.46D-01  5.01D-01  5.07D-01
                    CP:  6.09D-01
 E= -4575.29484400754     Delta-E=       -0.000917147478 Rises=F Damp=F
 DIIS: error= 1.35D-04 at cycle   7 NSaved=   7.
 NSaved= 7 IEnMin= 7 EnMin= -4575.29484400754     IErMin= 7 ErrMin= 1.35D-04
 ErrMax= 1.35D-04 EMaxC= 1.00D-01 BMatC= 5.77D-05 BMatP= 8.90D-04
 IDIUse=3 WtCom= 9.99D-01 WtEn= 1.35D-03
 Coeff-Com: -0.254D-02 0.246D-02 0.245D-01 0.410D-01 0.101D+00 0.267D+00
 Coeff-Com:  0.567D+00
 Coeff-En:   0.000D+00 0.000D+00 0.000D+00 0.000D+00 0.000D+00 0.000D+00
 Coeff-En:   0.100D+01
 Coeff:     -0.254D-02 0.245D-02 0.245D-01 0.410D-01 0.101D+00 0.266D+00
 Coeff:      0.567D+00
 Gap=     0.073 Goal=   None    Shift=    0.000
 RMSDP=7.17D-06 MaxDP=6.07D-04 DE=-9.17D-04 OVMax= 9.33D-04

 Initial convergence to 1.0D-05 achieved.  Increase integral accuracy.
 Cycle   8  Pass 1  IDiag  1:
 E= -4575.29496148006     Delta-E=       -0.000117472526 Rises=F Damp=F
 DIIS: error= 7.31D-04 at cycle   1 NSaved=   1.
 NSaved= 1 IEnMin= 1 EnMin= -4575.29496148006     IErMin= 1 ErrMin= 7.31D-04
 ErrMax= 7.31D-04 EMaxC= 1.00D-01 BMatC= 1.51D-04 BMatP= 1.51D-04
 IDIUse=3 WtCom= 9.93D-01 WtEn= 7.31D-03
 Coeff-Com:  0.100D+01
 Coeff-En:   0.100D+01
 Coeff:      0.100D+01
 Gap=     0.073 Goal=   None    Shift=    0.000
 RMSDP=7.17D-06 MaxDP=6.07D-04 DE=-1.17D-04 OVMax= 8.05D-04

 Cycle   9  Pass 1  IDiag  1:
 RMSU=  1.69D-04    CP:  1.00D+00
 E= -4575.29506202828     Delta-E=       -0.000100548219 Rises=F Damp=F
 DIIS: error= 3.49D-05 at cycle   2 NSaved=   2.
 NSaved= 2 IEnMin= 2 EnMin= -4575.29506202828     IErMin= 2 ErrMin= 3.49D-05
 ErrMax= 3.49D-05 EMaxC= 1.00D-01 BMatC= 6.46D-06 BMatP= 1.51D-04
 IDIUse=1 WtCom= 1.00D+00 WtEn= 0.00D+00
 Coeff-Com:  0.596D-01 0.940D+00
 Coeff:      0.596D-01 0.940D+00
 Gap=     0.073 Goal=   None    Shift=    0.000
 RMSDP=4.38D-06 MaxDP=4.18D-04 DE=-1.01D-04 OVMax= 1.49D-03

 Cycle  10  Pass 1  IDiag  1:
 RMSU=  2.66D-06    CP:  1.00D+00  1.01D+00
 E= -4575.29505411468     Delta-E=        0.000007913597 Rises=F Damp=F
 DIIS: error= 5.79D-05 at cycle   3 NSaved=   3.
 NSaved= 3 IEnMin= 2 EnMin= -4575.29506202828     IErMin= 2 ErrMin= 3.49D-05
 ErrMax= 5.79D-05 EMaxC= 1.00D-01 BMatC= 1.39D-05 BMatP= 6.46D-06
 IDIUse=1 WtCom= 1.00D+00 WtEn= 0.00D+00
 Coeff-Com: -0.102D-02 0.597D+00 0.404D+00
 Coeff:     -0.102D-02 0.597D+00 0.404D+00
 Gap=     0.073 Goal=   None    Shift=    0.000
 RMSDP=2.51D-06 MaxDP=3.76D-04 DE= 7.91D-06 OVMax= 1.54D-03

 Cycle  11  Pass 1  IDiag  1:
 RMSU=  7.50D-07    CP:  1.00D+00  1.01D+00  3.95D-01
 E= -4575.29506720988     Delta-E=       -0.000013095196 Rises=F Damp=F
 DIIS: error= 2.71D-05 at cycle   4 NSaved=   4.
 NSaved= 4 IEnMin= 4 EnMin= -4575.29506720988     IErMin= 4 ErrMin= 2.71D-05
 ErrMax= 2.71D-05 EMaxC= 1.00D-01 BMatC= 1.22D-06 BMatP= 6.46D-06
 IDIUse=1 WtCom= 1.00D+00 WtEn= 0.00D+00
 Coeff-Com: -0.296D-02 0.403D+00 0.297D+00 0.303D+00
 Coeff:     -0.296D-02 0.403D+00 0.297D+00 0.303D+00
 Gap=     0.073 Goal=   None    Shift=    0.000
 RMSDP=7.58D-07 MaxDP=1.10D-04 DE=-1.31D-05 OVMax= 6.59D-04

 Cycle  12  Pass 1  IDiag  1:
 RMSU=  2.28D-07    CP:  1.00D+00  1.01D+00  4.38D-01  3.71D-01
 E= -4575.29506859976     Delta-E=       -0.000001389879 Rises=F Damp=F
 DIIS: error= 4.52D-06 at cycle   5 NSaved=   5.
 NSaved= 5 IEnMin= 5 EnMin= -4575.29506859976     IErMin= 5 ErrMin= 4.52D-06
 ErrMax= 4.52D-06 EMaxC= 1.00D-01 BMatC= 3.39D-08 BMatP= 1.22D-06
 IDIUse=1 WtCom= 1.00D+00 WtEn= 0.00D+00
 Coeff-Com: -0.192D-02 0.239D+00 0.178D+00 0.203D+00 0.382D+00
 Coeff:     -0.192D-02 0.239D+00 0.178D+00 0.203D+00 0.382D+00
 Gap=     0.073 Goal=   None    Shift=    0.000
 RMSDP=1.42D-07 MaxDP=1.94D-05 DE=-1.39D-06 OVMax= 1.03D-04

 Cycle  13  Pass 1  IDiag  1:
 RMSU=  7.43D-08    CP:  1.00D+00  1.01D+00  4.33D-01  4.18D-01  7.55D-01
 E= -4575.29506863718     Delta-E=       -0.000000037424 Rises=F Damp=F
 DIIS: error= 9.03D-07 at cycle   6 NSaved=   6.
 NSaved= 6 IEnMin= 6 EnMin= -4575.29506863718     IErMin= 6 ErrMin= 9.03D-07
 ErrMax= 9.03D-07 EMaxC= 1.00D-01 BMatC= 2.59D-09 BMatP= 3.39D-08
 IDIUse=1 WtCom= 1.00D+00 WtEn= 0.00D+00
 Coeff-Com: -0.751D-03 0.893D-01 0.666D-01 0.812D-01 0.240D+00 0.524D+00
 Coeff:     -0.751D-03 0.893D-01 0.666D-01 0.812D-01 0.240D+00 0.524D+00
 Gap=     0.073 Goal=   None    Shift=    0.000
 RMSDP=3.91D-08 MaxDP=7.65D-06 DE=-3.74D-08 OVMax= 2.19D-05

 Cycle  14  Pass 1  IDiag  1:
 RMSU=  2.14D-08    CP:  1.00D+00  1.01D+00  4.35D-01  4.11D-01  7.90D-01
                    CP:  8.16D-01
 E= -4575.29506863920     Delta-E=       -0.000000002015 Rises=F Damp=F
 DIIS: error= 7.08D-07 at cycle   7 NSaved=   7.
 NSaved= 7 IEnMin= 7 EnMin= -4575.29506863920     IErMin= 7 ErrMin= 7.08D-07
 ErrMax= 7.08D-07 EMaxC= 1.00D-01 BMatC= 5.22D-10 BMatP= 2.59D-09
 IDIUse=1 WtCom= 1.00D+00 WtEn= 0.00D+00
 Coeff-Com: -0.210D-03 0.233D-01 0.174D-01 0.234D-01 0.102D+00 0.352D+00
 Coeff-Com:  0.482D+00
 Coeff:     -0.210D-03 0.233D-01 0.174D-01 0.234D-01 0.102D+00 0.352D+00
 Coeff:      0.482D+00
 Gap=     0.073 Goal=   None    Shift=    0.000
 RMSDP=1.81D-08 MaxDP=2.94D-06 DE=-2.02D-09 OVMax= 7.89D-06

 Cycle  15  Pass 1  IDiag  1:
 RMSU=  9.08D-09    CP:  1.00D+00  1.01D+00  4.34D-01  4.15D-01  7.96D-01
                    CP:  8.22D-01  6.10D-01
 E= -4575.29506863970     Delta-E=       -0.000000000506 Rises=F Damp=F
 DIIS: error= 4.34D-07 at cycle   8 NSaved=   8.
 NSaved= 8 IEnMin= 8 EnMin= -4575.29506863970     IErMin= 8 ErrMin= 4.34D-07
 ErrMax= 4.34D-07 EMaxC= 1.00D-01 BMatC= 1.19D-10 BMatP= 5.22D-10
 IDIUse=1 WtCom= 1.00D+00 WtEn= 0.00D+00
 Coeff-Com: -0.101D-04-0.157D-03-0.134D-03 0.171D-02 0.298D-01 0.156D+00
 Coeff-Com:  0.354D+00 0.459D+00
 Coeff:     -0.101D-04-0.157D-03-0.134D-03 0.171D-02 0.298D-01 0.156D+00
 Coeff:      0.354D+00 0.459D+00
 Gap=     0.073 Goal=   None    Shift=    0.000
 RMSDP=8.15D-09 MaxDP=8.64D-07 DE=-5.06D-10 OVMax= 3.11D-06

 SCF Done:  E(RB3LYP) =  -4575.29506864     A.U. after   15 cycles
             Convg  =    0.8148D-08             -V/T =  2.0030
 KE= 4.561691718785D+03 PE=-4.233195744598D+04 EE= 1.736888043520D+04
 Leave Link  502 at Tue Feb  5 08:32:49 2013, MaxMem= 1610612736 cpu:    9551.0
 (Enter /apps/gaussian/g09_c01/g09/l801.exe)
 ExpMin= 7.78D-02 ExpMax= 1.61D+04 ExpMxC= 2.43D+03 IAcc=3 IRadAn=         5 AccDes= 0.00D+00
 HarFok:  IExCor=  205 AccDes= 0.00D+00 IRadAn=         5 IDoV=-2
 ScaDFX=  1.000000  1.000000  1.000000  1.000000
 Largest valence mixing into a core orbital is  6.43D-05
 Largest core mixing into a valence orbital is  1.57D-05
 Range of M.O.s used for correlation:   109  1936
 NBasis=  1936 NAE=   346 NBE=   346 NFC=   108 NFV=     0
 NROrb=   1828 NOA=   238 NOB=   238 NVA=  1590 NVB=  1590

 **** Warning!!: The largest alpha MO coefficient is  0.10117772D+02


 **** Warning!!: The smallest alpha delta epsilon is  0.72651524D-01

 Leave Link  801 at Tue Feb  5 08:32:51 2013, MaxMem= 1610612736 cpu:      26.3
 (Enter /apps/gaussian/g09_c01/g09/l914.exe)
 RHF ground state
 MDV=  1610612736 DFT=T DoStab=F Mixed=T DoRPA=T DoScal=F NonHer=T
 Would need an additional************ words for in-memory AO integral storage.
 Making orbital integer symmetry assigments:
   100 initial guesses have been made.
 Convergence on wavefunction:    0.001000000000000
 Davidson Disk Diagonalization:  ConvIn= 1.00D-03 SkipCon=T Conv= 1.00D-03.
 Max sub-space:   400 roots to seek:   100 dimension of matrix: 756840
 Iteration     1 Dimension   100 NMult   100
 CISAX:  IP= 14 NPass=   8 NMax=    13.
 CISAX will form    13 AO SS matrices at one time.
 NMat=    13 NSing=    13.
 FoFCou: FMM=T IPFlag=           0 FMFlag=      100000 FMFlg1=        2001
         NFxFlg=           0 DoJE=F BraDBF=F KetDBF=F FulRan=T
         Omega=  0.000000  0.000000  1.000000  0.000000  0.000000 ICntrl=       0 IOpCl=  0
         NMat0=   13 NMatS0=   13 NMatT0=    0 NMatD0=   13 NMtDS0=    0 NMtDT0=    0
         I1Cent=           0 NGrid=           0.
 Symmetry not used in FoFCou.
 FMM levels:  10  Number of levels for PrismC:   9
 NMat=    13 NSing=    13.
 NMat=    13 NSing=    13.
 NMat=    13 NSing=    13.
 NMat=    13 NSing=    13.
 NMat=    13 NSing=    13.
 NMat=    13 NSing=    13.
 NMat=     9 NSing=     9.
 CISAX:  IP= 14 NPass=   8 NMax=    13.
 CISAX will form    13 AO SS matrices at one time.
 NMat=    13 NSing=    13.
 NMat=    13 NSing=    13.
 NMat=    13 NSing=    13.
 NMat=    13 NSing=    13.
 NMat=    13 NSing=    13.
 NMat=    13 NSing=    13.
 NMat=    13 NSing=    13.
 NMat=     9 NSing=     9.
 New state      1 was old state      3
 New state      3 was old state      4
 No map to state      4
 New state      5 was old state      6
 New state      6 was old state      7
 New state      7 was old state      5
 New state      9 was old state     13
 New state     10 was old state     14
 New state     11 was old state     19
 New state     12 was old state     20
 New state     13 was old state     10
 New state     14 was old state     11
 New state     15 was old state     16
 New state     16 was old state     15
 New state     17 was old state      9
 New state     18 was old state     12
 New state     19 was old state     21
 New state     20 was old state     22
 No map to state     21
 No map to state     22
 New state     23 was old state     17
 New state     24 was old state     18
 No map to state     25
 Excitation Energies [eV] at current iteration:
 Root      1 :     1.805557396896563
 Root      2 :     1.805567247162123
 Root      3 :     2.236023303701945
 Root      4 :     2.247500462851944
 Root      5 :     2.837116929444746
 Root      6 :     2.837205669796067
 Root      7 :     3.123268336902608
 Root      8 :     3.123349844622227
 Root      9 :     3.243051058175367
 Root     10 :     3.244715039206175
 Root     11 :     3.262760392319294
 Root     12 :     3.262952899467896
 Root     13 :     3.516854436003505
 Root     14 :     3.516905312234393
 Root     15 :     3.542448413807353
 Root     16 :     3.542797963165541
 Root     17 :     3.604465447129837
 Root     18 :     3.605111435502107
 Root     19 :     3.633986180032350
 Root     20 :     3.634588726374626
 Root     21 :     3.657282963196187
 Root     22 :     3.657507681964434
 Root     23 :     3.662815445542688
 Root     24 :     3.663019400405277
 Root     25 :     3.798928781087151
 Iteration     2 Dimension   150 NMult   150
 CISAX:  IP= 14 NPass=   4 NMax=    13.
 CISAX will form    13 AO SS matrices at one time.
 NMat=    13 NSing=    13.
 NMat=    13 NSing=    13.
 NMat=    13 NSing=    13.
 NMat=    11 NSing=    11.
 CISAX:  IP= 14 NPass=   4 NMax=    13.
 CISAX will form    13 AO SS matrices at one time.
 NMat=    13 NSing=    13.
 NMat=    13 NSing=    13.
 NMat=    13 NSing=    13.
 NMat=    11 NSing=    11.
 New state      1 was old state      3
 Root      1 not converged, maximum delta is    0.061081199118313
 New state      2 was old state      4
 Root      2 not converged, maximum delta is    0.053107506165163
 New state      3 was old state      1
 Root      3 not converged, maximum delta is    0.216041021102812
 New state      4 was old state      2
 Root      4 not converged, maximum delta is    0.231351973783343
 Root      5 not converged, maximum delta is    0.108827841229573
 Root      6 not converged, maximum delta is    0.108473070826244
 Root      7 not converged, maximum delta is    0.001784913799281
 Root      8 not converged, maximum delta is    0.001817226875546
 Root      9 not converged, maximum delta is    0.068938018600116
 Root     10 not converged, maximum delta is    0.128637685754185
 New state     11 was old state     12
 Root     11 not converged, maximum delta is    0.105654535193119
 New state     12 was old state     11
 Root     12 not converged, maximum delta is    0.175683320577251
 New state     13 was old state     17
 Root     13 not converged, maximum delta is    0.150200643044345
 New state     14 was old state     18
 Root     14 not converged, maximum delta is    0.145632575233557
 New state     15 was old state     13
 Root     15 not converged, maximum delta is    0.003367129679074
 New state     16 was old state     14
 Root     16 not converged, maximum delta is    0.003368965958866
 New state     17 was old state     15
 Root     17 not converged, maximum delta is    0.065562821647594
 New state     18 was old state     16
 Root     18 not converged, maximum delta is    0.065692377696772
 Root     19 not converged, maximum delta is    0.040233053305727
 Root     20 not converged, maximum delta is    0.035649893304356
 Root     21 not converged, maximum delta is    0.075751210028244
 Root     22 not converged, maximum delta is    0.075513026796965
 Root     23 not converged, maximum delta is    0.016420604794470
 Root     24 not converged, maximum delta is    0.016256187749740
 Root     25 not converged, maximum delta is    0.095412068534024
 Excitation Energies [eV] at current iteration:
 Root      1 :     1.762210782378124   Change is   -0.473812521323821
 Root      2 :     1.772580904190513   Change is   -0.474919558661431
 Root      3 :     1.805553660917554   Change is   -0.000003735979009
 Root      4 :     1.805570724075060   Change is    0.000003476912937
 Root      5 :     2.766045551696460   Change is   -0.071071377748285
 Root      6 :     2.766120926176206   Change is   -0.071084743619860
 Root      7 :     3.123194770885498   Change is   -0.000073566017110
 Root      8 :     3.123276261000928   Change is   -0.000073583621299
 Root      9 :     3.196000371888651   Change is   -0.047050686286716
 Root     10 :     3.197710658368334   Change is   -0.047004380837841
 Root     11 :     3.203844679818809   Change is   -0.059108219649088
 Root     12 :     3.204625892161694   Change is   -0.058134500157600
 Root     13 :     3.252914924029802   Change is   -0.351550523100036
 Root     14 :     3.253030303559356   Change is   -0.352081131942751
 Root     15 :     3.516763763925725   Change is   -0.000090672077780
 Root     16 :     3.516814636450694   Change is   -0.000090675783700
 Root     17 :     3.540333516407930   Change is   -0.002114897399423
 Root     18 :     3.540776827675845   Change is   -0.002021135489695
 Root     19 :     3.609148741087652   Change is   -0.024837438944698
 Root     20 :     3.609987219699406   Change is   -0.024601506675221
 Root     21 :     3.628806315671861   Change is   -0.028476647524326
 Root     22 :     3.629192485746289   Change is   -0.028315196218145
 Root     23 :     3.662726158545871   Change is   -0.000089286996817
 Root     24 :     3.662930606195024   Change is   -0.000088794210252
 Root     25 :     3.731099268222330   Change is   -0.067829512864821
 Iteration     3 Dimension   200 NMult   200
 CISAX:  IP= 14 NPass=   4 NMax=    13.
 CISAX will form    13 AO SS matrices at one time.
 NMat=    13 NSing=    13.
 NMat=    13 NSing=    13.
 NMat=    13 NSing=    13.
 NMat=    11 NSing=    11.
 CISAX:  IP= 14 NPass=   4 NMax=    13.
 CISAX will form    13 AO SS matrices at one time.
 NMat=    13 NSing=    13.
 NMat=    13 NSing=    13.
 NMat=    13 NSing=    13.
 NMat=    11 NSing=    11.
 Root      1 not converged, maximum delta is    0.007158363111981
 Root      2 not converged, maximum delta is    0.007008444400364
 Root      3 not converged, maximum delta is    0.031206711821391
 Root      4 not converged, maximum delta is    0.032469038749146
 Root      5 not converged, maximum delta is    0.104845019370647
 Root      6 not converged, maximum delta is    0.114457578382855
 Root      7 has converged.
 Root      8 has converged.
 Root      9 not converged, maximum delta is    0.052912605770910
 Root     10 not converged, maximum delta is    0.082856708554920
 New state     11 was old state     12
 Root     11 not converged, maximum delta is    0.109952136920873
 New state     12 was old state     11
 Root     12 not converged, maximum delta is    0.078429020265144
 Root     13 not converged, maximum delta is    0.093140115228671
 Root     14 not converged, maximum delta is    0.093822460987067
 Root     15 has converged.
 Root     16 has converged.
 Root     17 not converged, maximum delta is    0.014025806424969
 Root     18 not converged, maximum delta is    0.014181950944580
 Root     19 not converged, maximum delta is    0.022546245872426
 Root     20 not converged, maximum delta is    0.017340892867521
 Root     21 not converged, maximum delta is    0.013521956357452
 Root     22 not converged, maximum delta is    0.014164801790275
 Root     23 has converged.
 Root     24 has converged.
 Root     25 not converged, maximum delta is    0.224612401499399
 Excitation Energies [eV] at current iteration:
 Root      1 :     1.748369556350232   Change is   -0.013841226027892
 Root      2 :     1.758876149632417   Change is   -0.013704754558097
 Root      3 :     1.805553116637181   Change is   -0.000000544280373
 Root      4 :     1.805567578864315   Change is   -0.000003145210745
 Root      5 :     2.759700179028048   Change is   -0.006345372668413
 Root      6 :     2.759810017820129   Change is   -0.006310908356077
 Root      7 :     3.123194710973542   Change is   -0.000000059911956
 Root      8 :     3.123276217117135   Change is   -0.000000043883793
 Root      9 :     3.185907127935091   Change is   -0.010093243953560
 Root     10 :     3.188350561918048   Change is   -0.009360096450286
 Root     11 :     3.197649117659438   Change is   -0.006976774502256
 Root     12 :     3.197875641019739   Change is   -0.005969038799070
 Root     13 :     3.235434271569886   Change is   -0.017480652459916
 Root     14 :     3.235695159234686   Change is   -0.017335144324670
 Root     15 :     3.516763589041808   Change is   -0.000000174883916
 Root     16 :     3.516814460238749   Change is   -0.000000176211944
 Root     17 :     3.539961366033667   Change is   -0.000372150374263
 Root     18 :     3.540431912141082   Change is   -0.000344915534764
 Root     19 :     3.606824864336584   Change is   -0.002323876751069
 Root     20 :     3.607862250910427   Change is   -0.002124968788979
 Root     21 :     3.626124777237501   Change is   -0.002681538434359
 Root     22 :     3.626438602832632   Change is   -0.002753882913657
 Root     23 :     3.662724723960721   Change is   -0.000001434585150
 Root     24 :     3.662929138495453   Change is   -0.000001467699572
 Root     25 :     3.708928788417934   Change is   -0.022170479804396
 Iteration     4 Dimension   238 NMult   238
 CISAX:  IP= 14 NPass=   3 NMax=    13.
 CISAX will form    13 AO SS matrices at one time.
 NMat=    13 NSing=    13.
 NMat=    13 NSing=    13.
 NMat=    12 NSing=    12.
 CISAX:  IP= 14 NPass=   3 NMax=    13.
 CISAX will form    13 AO SS matrices at one time.
 NMat=    13 NSing=    13.
 NMat=    13 NSing=    13.
 NMat=    12 NSing=    12.
 Root      1 not converged, maximum delta is    0.001815709540650
 Root      2 not converged, maximum delta is    0.001725402828852
 Root      3 not converged, maximum delta is    0.002644768973338
 Root      4 not converged, maximum delta is    0.002759507706013
 Root      5 not converged, maximum delta is    0.022632821114048
 Root      6 not converged, maximum delta is    0.025226605381132
 Root      7 has converged.
 Root      8 has converged.
 Root      9 not converged, maximum delta is    0.003077503597108
 Root     10 not converged, maximum delta is    0.006108140210727
 Root     11 not converged, maximum delta is    0.007759031162713
 Root     12 not converged, maximum delta is    0.004576200223827
 Root     13 not converged, maximum delta is    0.002536512348946
 Root     14 not converged, maximum delta is    0.002585644728922
 Root     15 has converged.
 Root     16 has converged.
 Root     17 not converged, maximum delta is    0.002263828369601
 Root     18 not converged, maximum delta is    0.001396637857143
 Root     19 not converged, maximum delta is    0.012935892932951
 Root     20 not converged, maximum delta is    0.007330322648368
 Root     21 not converged, maximum delta is    0.011887529196532
 Root     22 not converged, maximum delta is    0.011746041005624
 Root     23 not converged, maximum delta is    0.001986522967852
 Root     24 not converged, maximum delta is    0.002086133068508
 Root     25 not converged, maximum delta is    0.192607955925328
 Excitation Energies [eV] at current iteration:
 Root      1 :     1.747189295565823   Change is   -0.001180260784409
 Root      2 :     1.757578150850526   Change is   -0.001297998781891
 Root      3 :     1.805553057764862   Change is   -0.000000058872319
 Root      4 :     1.805567342639977   Change is   -0.000000236224338
 Root      5 :     2.759286554642445   Change is   -0.000413624385602
 Root      6 :     2.759387106773937   Change is   -0.000422911046193
 Root      7 :     3.123194704390932   Change is   -0.000000006582610
 Root      8 :     3.123276212137410   Change is   -0.000000004979724
 Root      9 :     3.184867744926703   Change is   -0.001039383008388
 Root     10 :     3.187384165589258   Change is   -0.000966396328790
[...]
 Alpha virt. eigenvalues --    3.18472   3.18508   3.18542   3.18616   3.18635
 Alpha virt. eigenvalues --    3.19070   3.21173   3.21929   3.21973   3.22016
 Alpha virt. eigenvalues --    3.22087   3.24846   3.24939   3.25527   3.25880
 Alpha virt. eigenvalues --    3.26688   3.26925   3.28982   3.28984   3.30103
 Alpha virt. eigenvalues --    3.30107   3.30769   3.30809   3.33510   3.33511
 Alpha virt. eigenvalues --    3.34364   3.34387   3.41052   3.41071   3.46538
 Alpha virt. eigenvalues --    3.46559   3.51122   3.51128   3.55424   3.55425
 Alpha virt. eigenvalues --    3.57648   3.57844   3.57973   3.58154   3.58539
 Alpha virt. eigenvalues --    3.58586   3.58632   3.58688   3.59192   3.59262
 Alpha virt. eigenvalues --    3.59344   3.59620   3.61536   3.61575   3.61656
 Alpha virt. eigenvalues --    3.61681   3.61956   3.61959   3.62010   3.62074
 Alpha virt. eigenvalues --    3.62252   3.62448   3.62575   3.62629   3.63688
 Alpha virt. eigenvalues --    3.63835   3.63872   3.63996   3.64025   3.64056
 Alpha virt. eigenvalues --    3.64253   3.64376   3.64439   3.64525   3.64664
 Alpha virt. eigenvalues --    3.65647   3.65662   3.65702   3.65722   3.65788
 Alpha virt. eigenvalues --    3.65813   3.65825   3.66061   3.67408   3.71666
 Alpha virt. eigenvalues --    3.71780   3.71816   3.71907   3.71976   3.72010
 Alpha virt. eigenvalues --    3.72098   3.72182   3.72195   3.72424   3.72851
 Alpha virt. eigenvalues --    3.72860   3.73073   3.73112   3.73188   3.73559
 Alpha virt. eigenvalues --    3.74014   3.74344   3.74397   3.74954   3.75381
 Alpha virt. eigenvalues --    3.75455   3.75515   3.75656   3.75715   3.75761
 Alpha virt. eigenvalues --    3.75958   3.76219   3.76305   3.76375   3.76482
 Alpha virt. eigenvalues --    3.76518   3.76625   3.76680   3.76831   3.77172
 Alpha virt. eigenvalues --    3.77222   3.77293   3.81199   3.81244   3.81270
 Alpha virt. eigenvalues --    3.81302   3.82481   3.82838   3.82933   3.83008
 Alpha virt. eigenvalues --    3.83958   3.84628   3.84880   3.85026   3.85327
 Alpha virt. eigenvalues --    3.85972   3.86087   3.86869   3.86877   3.87015
 Alpha virt. eigenvalues --    3.87020   3.87440   3.87460   3.87689   3.95878
 Alpha virt. eigenvalues --    3.95884   3.96844   3.96847   4.08124   4.08129
 Alpha virt. eigenvalues --    4.11016   4.11016   4.11285   4.11285   4.12173
 Alpha virt. eigenvalues --    4.12185   4.12294   4.12295   4.13983   4.13984
 Alpha virt. eigenvalues --    4.14541   4.14541   4.14694   4.14695   4.15130
 Alpha virt. eigenvalues --    4.15131   4.17611   4.17613   4.17679   4.17682
 Alpha virt. eigenvalues --    4.18897   4.18898   4.21972   4.21988   4.22540
 Alpha virt. eigenvalues --    4.22552   4.33869   4.33875   4.35108   4.35123
 Alpha virt. eigenvalues --    4.36903   4.36911   4.37266   4.37289   4.37473
 Alpha virt. eigenvalues --    4.37700   4.38193   4.38957   4.39047   4.39137
 Alpha virt. eigenvalues --    4.41779   4.41782   4.45501   4.45545   4.47047
 Alpha virt. eigenvalues --    4.47091   4.48366   4.48381   4.48404   4.48752
 Alpha virt. eigenvalues --    4.51092   4.51096   4.51184   4.51187   4.55366
 Alpha virt. eigenvalues --    4.55369   4.55679   4.55698   4.57047   4.57050
 Alpha virt. eigenvalues --    4.57552   4.58002   4.59143   4.59174   4.60225
 Alpha virt. eigenvalues --    4.60445   4.60943   4.61976   4.62824   4.62825
 Alpha virt. eigenvalues --    4.63359   4.63377   4.63979   4.66880   4.68772
 Alpha virt. eigenvalues --    4.68807   4.69126   4.70314   4.76675   4.76676
 Alpha virt. eigenvalues --    4.77449   4.79362   4.79597   4.80082   4.86991
 Alpha virt. eigenvalues --    4.86997   4.96587   4.96587   5.10548   5.10549
          Condensed to atoms (all electrons):
 Mulliken atomic charges:
              1
     1  Si   0.575864
     2  C   -0.075440
     3  C    0.111279
     4  C   -0.158268
     5  H    0.059444
     6  C    0.103403
     7  C   -0.087104
     8  H    0.058551
     9  C   -0.062965
    10  H    0.059173
    11  C   -0.062806
    12  H    0.059073
    13  C   -0.081113
    14  H    0.056559
    15  C    0.105098
    16  C   -0.170458
    17  H    0.066819
    18  C    0.113381
    19  C    0.393345
    20  C   -0.608612
    21  C   -0.287101
    22  H    0.105565
    23  C   -0.306707
    24  H    0.123849
    25  H    0.103302
    26  H    0.093714
    27  C   -0.309715
    28  H    0.094551
    29  H    0.105114
    30  H    0.121027
    31  C   -0.281375
    32  H    0.112254
    33  C   -0.311552
    34  H    0.109178
    35  H    0.098351
    36  H    0.107847
    37  C   -0.298813
    38  H    0.104335
    39  H    0.114201
    40  H    0.095467
    41  C   -0.277951
    42  H    0.115756
    43  C   -0.307893
    44  H    0.105617
    45  H    0.096498
    46  H    0.109421
    47  C   -0.304414
    48  H    0.120240
    49  H    0.104180
    50  H    0.090613
    51  Si   0.576249
    52  C   -0.076496
    53  C    0.112486
    54  C   -0.158706
    55  H    0.059648
    56  C    0.102919
    57  C   -0.086804
    58  H    0.058430
    59  C   -0.063282
    60  H    0.059269
    61  C   -0.062417
    62  H    0.058901
    63  C   -0.081359
    64  H    0.056644
    65  C    0.105058
    66  C   -0.171187
    67  H    0.067021
    68  C    0.113783
    69  C    0.393629
    70  C   -0.609436
    71  C   -0.287247
    72  H    0.104823
    73  C   -0.306868
    74  H    0.124189
    75  H    0.103231
    76  H    0.093658
    77  C   -0.309705
    78  H    0.094483
    79  H    0.104792
    80  H    0.121402
    81  C   -0.272513
    82  H    0.112724
    83  C   -0.311237
    84  H    0.098014
    85  H    0.103600
    86  H    0.108977
    87  C   -0.305258
    88  H    0.106176
    89  H    0.117919
    90  H    0.090819
    91  C   -0.277026
    92  H    0.115950
    93  C   -0.307873
    94  H    0.105191
    95  H    0.096611
    96  H    0.109016
    97  C   -0.304911
    98  H    0.120692
    99  H    0.104775
   100  H    0.090481
   101  Si   0.575913
   102  C   -0.075682
   103  C    0.111360
   104  C   -0.158275
   105  H    0.059329
   106  C    0.103482
   107  C   -0.087059
   108  H    0.058513
   109  C   -0.062926
   110  H    0.059184
   111  C   -0.062868
   112  H    0.059077
   113  C   -0.081101
   114  H    0.056605
   115  C    0.104972
   116  C   -0.170426
   117  H    0.066956
   118  C    0.113236
   119  C    0.394406
   120  C   -0.609950
   121  C   -0.287482
   122  H    0.104777
   123  C   -0.306660
   124  H    0.124103
   125  H    0.103254
   126  H    0.093666
   127  C   -0.309672
   128  H    0.094485
   129  H    0.104806
   130  H    0.121439
   131  C   -0.272519
   132  H    0.112744
   133  C   -0.311315
   134  H    0.098003
   135  H    0.103512
   136  H    0.109055
   137  C   -0.305074
   138  H    0.106188
   139  H    0.117925
   140  H    0.090818
   141  C   -0.277276
   142  H    0.115881
   143  C   -0.308063
   144  H    0.105170
   145  H    0.096608
   146  H    0.109019
   147  C   -0.304523
   148  H    0.120648
   149  H    0.104787
   150  H    0.090567
   151  Si   0.576186
   152  C   -0.076278
   153  C    0.112434
   154  C   -0.158750
   155  H    0.059787
   156  C    0.102873
   157  C   -0.086850
   158  H    0.058464
   159  C   -0.063301
   160  H    0.059263
   161  C   -0.062378
   162  H    0.058901
   163  C   -0.081357
   164  H    0.056592
   165  C    0.105103
   166  C   -0.171212
   167  H    0.066908
   168  C    0.113965
   169  C    0.392614
   170  C   -0.608129
   171  C   -0.286859
   172  H    0.105605
   173  C   -0.306908
   174  H    0.123931
   175  H    0.103277
   176  H    0.093710
   177  C   -0.309744
   178  H    0.094542
   179  H    0.105095
   180  H    0.120986
   181  C   -0.281376
   182  H    0.112224
   183  C   -0.311429
   184  H    0.109186
   185  H    0.098407
   186  H    0.107758
   187  C   -0.298977
   188  H    0.104308
   189  H    0.114186
   190  H    0.095457
   191  C   -0.277698
   192  H    0.115815
   193  C   -0.307712
   194  H    0.105644
   195  H    0.096497
   196  H    0.109417
   197  C   -0.304787
   198  H    0.120280
   199  H    0.104168
   200  H    0.090525
 Sum of Mulliken atomic charges =   0.00000
 Mulliken charges with hydrogens summed into heavy atoms:
              1
     1  Si   0.575864
     2  C   -0.075440
     3  C    0.111279
     4  C   -0.098824
     6  C    0.103403
     7  C   -0.028552
     9  C   -0.003792
    11  C   -0.003733
    13  C   -0.024554
    15  C    0.105098
    16  C   -0.103638
    18  C    0.113381
    19  C    0.393345
    20  C   -0.608612
    21  C   -0.181536
    23  C    0.014158
    27  C    0.010976
    31  C   -0.169121
    33  C    0.003824
    37  C    0.015190
    41  C   -0.162195
    43  C    0.003642
    47  C    0.010619
    51  Si   0.576249
    52  C   -0.076496
    53  C    0.112486
    54  C   -0.099058
    56  C    0.102919
    57  C   -0.028374
    59  C   -0.004012
    61  C   -0.003515
    63  C   -0.024715
    65  C    0.105058
    66  C   -0.104166
    68  C    0.113783
    69  C    0.393629
    70  C   -0.609436
    71  C   -0.182424
    73  C    0.014210
    77  C    0.010973
    81  C   -0.159789
    83  C   -0.000646
    87  C    0.009656
    91  C   -0.161076
    93  C    0.002944
    97  C    0.011038
   101  Si   0.575913
   102  C   -0.075682
   103  C    0.111360
   104  C   -0.098946
   106  C    0.103482
   107  C   -0.028546
   109  C   -0.003742
   111  C   -0.003791
   113  C   -0.024495
   115  C    0.104972
   116  C   -0.103470
   118  C    0.113236
   119  C    0.394406
   120  C   -0.609950
   121  C   -0.182705
   123  C    0.014363
   127  C    0.011059
   131  C   -0.159775
   133  C   -0.000744
   137  C    0.009857
   141  C   -0.161395
   143  C    0.002734
   147  C    0.011479
   151  Si   0.576186
   152  C   -0.076278
   153  C    0.112434
   154  C   -0.098963
   156  C    0.102873
   157  C   -0.028387
   159  C   -0.004038
   161  C   -0.003476
   163  C   -0.024765
   165  C    0.105103
   166  C   -0.104304
   168  C    0.113965
   169  C    0.392614
   170  C   -0.608129
   171  C   -0.181254
   173  C    0.014011
   177  C    0.010879
   181  C   -0.169152
   183  C    0.003922
   187  C    0.014974
   191  C   -0.161884
   193  C    0.003847
   197  C    0.010186
 Sum of Mulliken charges with hydrogens summed into heavy atoms =   0.00000
 Electronic spatial extent (au):  <R**2>=        1228266.4274
 Charge=              0.0000 electrons
 Dipole moment (field-independent basis, Debye):
    X=              0.0001    Y=              0.0016    Z=             -0.0007  Tot=              0.0018
 Quadrupole moment (field-independent basis, Debye-Ang):
   XX=           -537.4725   YY=           -558.3161   ZZ=           -528.2286
   XY=            -21.3982   XZ=            -14.1710   YZ=            -22.9843
 Traceless Quadrupole moment (field-independent basis, Debye-Ang):
   XX=              3.8665   YY=            -16.9770   ZZ=             13.1105
   XY=            -21.3982   XZ=            -14.1710   YZ=            -22.9843
 Octapole moment (field-independent basis, Debye-Ang**2):
  XXX=         -15533.7645  YYY=          -9550.3835  ZZZ=         -26048.4615  XYY=          -5622.8815
  XXY=          -3477.1836  XXZ=          -9107.9215  XZZ=          -5554.6966  YZZ=          -3767.6508
  YYZ=          -9440.1765  XYZ=           -654.1105
 Hexadecapole moment (field-independent basis, Debye-Ang**3):
 XXXX=        -328598.3533 YYYY=        -130220.0856 ZZZZ=       -1131036.0923 XXXY=         -92104.8638
 XXXZ=        -276262.2628 YYYX=         -90677.5845 YYYZ=        -147114.5233 ZZZX=        -281434.4049
 ZZZY=        -159781.9763 XXYY=         -82114.7047 XXZZ=        -255194.3304 YYZZ=        -227858.5074
 XXYZ=         -57306.7274 YYXZ=        -101136.3389 ZZXY=         -45572.1807
 N-N= 1.582609022336D+04 E-N=-4.233195720937D+04  KE= 4.561691718785D+03
 Leave Link  601 at Wed Feb  6 00:18:18 2013, MaxMem= 1610612736 cpu:      16.7
 (Enter /apps/gaussian/g09_c01/g09/l9999.exe)
 1\1\GINC-CX1-5-15-2\SP\RB3LYP TD-FC\6-31G(d,p)\C88H108Si4\JMF02\06-Feb
 -2013\0\\#p scf=verytight b3lyp/6-31g(d,p) td(singlets,nstates=25) nos
 ymm\\CSD ENTRY k01029\\0,1\Si,0,7.3246218,3.49405732,13.73454049\C,0,7
 .89519977,5.27475474,9.6692504\C,0,6.90248072,6.16342899,9.19115004\C,
 0,5.82251369,6.57504288,9.99183863\H,0,5.77488329,6.26559964,10.887272
 73\C,0,4.82732278,7.41473114,9.52558155\C,0,3.72744551,7.82638816,10.3
 3833581\H,0,3.67045693,7.52245014,11.23778452\C,0,2.76582925,8.6392826
 1,9.85033398\H,0,2.04726408,8.907831,10.41106641\C,0,2.8222809,9.09625
 874,8.50712289\H,0,2.13483955,9.6621266,8.17497994\C,0,3.83791404,8.73
 828467,7.69837701\H,0,3.85916981,9.05918385,6.80471494\C,0,4.88648498,
 7.88164689,8.16409871\C,0,5.95057172,7.50193196,7.36833682\H,0,5.99420
 372,7.82560567,6.47545352\C,0,6.97287461,6.64975416,7.83072711\C,0,7.7
 7489688,4.74422493,10.9981132\C,0,7.63090887,4.26599889,12.09567245\C,
 0,7.49985064,1.62842277,13.53714598\H,0,7.33157851,1.214442,14.4307154
 6\C,0,6.46822943,1.04703269,12.55338318\H,0,6.55447792,1.49646016,11.6
 8553634\H,0,5.5656265,1.18730337,12.90735504\H,0,6.62992516,0.08717097
 ,12.44040102\C,0,8.91996745,1.24171155,13.10837134\H,0,8.97601141,0.26
 85909,13.00293287\H,0,9.55799452,1.53243757,13.7924392\H,0,9.13396623,
 1.6760451,12.25761351\C,0,8.65151959,4.13965066,14.89510737\H,0,9.5244
 1635,3.90315244,14.46883887\C,0,8.66548848,3.47236403,16.27140074\H,0,
 9.47245456,3.74359801,16.75626349\H,0,8.66189681,2.4985193,16.16394589
 \H,0,7.87319628,3.74818826,16.77633543\C,0,8.65419146,5.66224113,15.03
 604749\H,0,7.83291566,5.94888375,15.48772888\H,0,8.69906704,6.07195379
 ,14.14888701\H,0,9.43157993,5.93993695,15.56316435\C,0,5.57434901,3.93
 663351,14.24247403\H,0,5.02318942,3.48799266,13.53705324\C,0,5.1457918
 8,3.23007949,15.48523917\H,0,5.4882582,2.31095895,15.47498065\H,0,4.16
 699554,3.21252343,15.53079689\H,0,5.50068858,3.70120269,16.26801901\C,
 0,5.16917098,5.33443905,14.12192766\H,0,5.53963673,5.71201053,13.29601
 247\H,0,5.50543754,5.8386851,14.89183138\H,0,4.19130604,5.39022216,14.
 09773226\Si,0,8.62411554,8.03390657,2.94371407\C,0,8.05348275,6.252210
 66,7.00900015\C,0,9.04620181,5.36353641,7.48710052\C,0,10.12517542,4.9
 5197665,6.68651292\H,0,10.17385405,5.26236424,5.79098183\C,0,11.121359
 75,4.11223425,7.152669\C,0,12.22129183,3.70157573,6.33991874\H,0,12.27
 82256,4.00451526,5.44046603\C,0,13.18290809,2.88868127,6.82792057\H,0,
 13.90141844,2.61913439,6.26718414\C,0,13.12640162,2.43070666,8.1711276
 6\H,0,13.81389779,1.86583728,8.50327462\C,0,12.11076848,2.78868073,8.9
 7987354\H,0,12.08951271,2.46778154,9.87353561\C,0,11.06219754,3.645318
 51,8.51415184\C,0,9.99717221,4.02608605,9.31001874\H,0,9.95447881,3.70
 135973,10.20279703\C,0,8.9748145,4.87726537,8.84762443\C,0,8.17378564,
 6.78274047,5.68013735\C,0,8.31777366,7.26096651,4.5825781\C,0,8.448831
 88,9.89854263,3.14110457\H,0,8.61616541,10.31357602,2.24764009\C,0,9.4
 7945968,10.47998684,4.12496836\H,0,9.3942046,10.03050524,4.99271421\H,
 0,10.38305603,10.33966203,3.77089551\H,0,9.31881218,11.44079292,4.2378
 5354\C,0,7.02871508,10.28525385,3.56987921\H,0,6.97267111,11.2583745,3
 .67531769\H,0,6.390688,9.99452783,2.88581135\H,0,6.81372288,9.85097443
 ,4.42073804\C,0,7.29721775,7.38831323,1.78314718\H,0,6.42327276,7.6238
 6709,2.20951267\C,0,7.28225544,8.05565399,0.40695481\H,0,6.47523455,7.
 78342152,-0.07791194\H,0,7.2857923,9.02850023,0.51440566\H,0,8.0754862
 5,7.77877714,-0.09808488\C,0,7.29454588,5.86572275,1.64220707\H,0,8.11
 576686,5.57808165,1.19052167\H,0,7.24961549,5.4550116,2.52936354\H,0,6
 .51715741,5.58802694,1.1150902\C,0,10.37438833,7.59133038,2.43578053\H
 ,0,10.92549311,8.03897274,3.14119731\C,0,10.80294546,8.29788439,1.1930
 1538\H,0,10.45943091,9.21606058,1.20337089\H,0,11.78168699,8.31444196,
 1.14745366\H,0,10.44804876,7.8267612,0.41023555\C,0,10.77857295,6.1935
 7897,2.55642789\H,0,10.40904579,5.81495486,3.38223808\H,0,10.44225157,
 5.68833443,1.78652017\H,0,11.75737648,6.13674323,2.58051829\Si,0,10.64
 38,3.37033,29.9325\C,0,11.2144,5.15103,25.8672\C,0,10.2217,6.0397,25.3
 891\C,0,9.14168,6.45131,26.1898\H,0,9.09405,6.14187,27.0852\C,0,8.1464
 9,7.291,25.7235\C,0,7.04661,7.70266,26.5363\H,0,6.98963,7.39872,27.435
 7\C,0,6.085,8.51555,26.0483\H,0,5.36643,8.7841,26.609\C,0,6.14145,8.97
 253,24.7051\H,0,5.45401,9.5384,24.3729\C,0,7.15708,8.61456,23.8963\H,0
 ,7.17834,8.93546,23.0027\C,0,8.20565,7.75792,24.3621\C,0,9.26974,7.378
 2,23.5663\H,0,9.31337,7.70188,22.6734\C,0,10.292,6.52603,24.0287\C,0,1
 1.0941,4.6205,27.1961\C,0,10.9501,4.14227,28.2936\C,0,10.819,1.50469,2
 9.7351\H,0,10.6507,1.09071,30.6287\C,0,9.7874,0.923304,28.7513\H,0,9.8
 7365,1.37273,27.8835\H,0,8.8848,1.06358,29.1053\H,0,9.94909,-0.0365574
 ,28.6384\C,0,12.2391,1.11798,29.3063\H,0,12.2952,0.144863,29.2009\H,0,
 12.8772,1.40871,29.9904\H,0,12.4531,1.55232,28.4556\C,0,11.9707,4.0159
 2,31.0931\H,0,12.8436,3.77942,30.6668\C,0,11.9847,3.34864,32.4694\H,0,
 12.7916,3.61987,32.9542\H,0,11.9811,2.37479,32.3619\H,0,11.1924,3.6244
 6,32.9743\C,0,11.9734,5.53851,31.234\H,0,11.1521,5.82516,31.6857\H,0,1
 2.0182,5.94823,30.3469\H,0,12.7507,5.81621,31.7611\C,0,8.89352,3.81291
 ,30.4404\H,0,8.34236,3.36426,29.735\C,0,8.46496,3.10635,31.6832\H,0,8.
 80743,2.18723,31.6729\H,0,7.48616,3.0888,31.7288\H,0,8.81986,3.57747,3
 2.466\C,0,8.48834,5.21071,30.3199\H,0,8.85881,5.58828,29.494\H,0,8.824
 61,5.71496,31.0898\H,0,7.51048,5.26649,30.2957\Si,0,11.9433,7.91018,19
 .1417\C,0,11.3727,6.12848,23.207\C,0,12.3654,5.23981,23.6851\C,0,13.44
 43,4.82825,22.8845\H,0,13.493,5.13864,21.9889\C,0,14.4405,3.98851,23.3
 506\C,0,15.5405,3.57785,22.5379\H,0,15.5974,3.88079,21.6384\C,0,16.502
 1,2.76495,23.0259\H,0,17.2206,2.49541,22.4651\C,0,16.4456,2.30698,24.3
 691\H,0,17.1331,1.74211,24.7012\C,0,15.4299,2.66495,25.1778\H,0,15.408
 7,2.34405,26.0715\C,0,14.3814,3.52159,24.7121\C,0,13.3163,3.90236,25.5
 08\H,0,13.2736,3.57763,26.4008\C,0,12.294,4.75354,25.0456\C,0,11.493,6
 .65901,21.8781\C,0,11.6369,7.13724,20.7805\C,0,11.768,9.77481,19.3391\
 H,0,11.9353,10.1898,18.4456\C,0,12.7986,10.3563,20.3229\H,0,12.7134,9.
 90678,21.1907\H,0,13.7022,10.2159,19.9689\H,0,12.638,11.3171,20.4358\C
 ,0,10.3479,10.1615,19.7678\H,0,10.2918,11.1346,19.8733\H,0,9.70986,9.8
 708,19.0838\H,0,10.1329,9.72725,20.6187\C,0,10.6164,7.26458,17.9811\H,
 0,9.74244,7.50014,18.4075\C,0,10.6014,7.93193,16.6049\H,0,9.7944,7.659
 69,16.1201\H,0,10.605,8.90477,16.7124\H,0,11.3947,7.65505,16.0999\C,0,
 10.6137,5.74199,17.8402\H,0,11.4349,5.45435,17.3885\H,0,10.5688,5.3312
 8,18.7273\H,0,9.83633,5.4643,17.3131\C,0,13.6936,7.4676,18.6337\H,0,14
 .2447,7.91524,19.3392\C,0,14.1221,8.17416,17.391\H,0,13.7786,9.09233,1
 7.4013\H,0,15.1009,8.19071,17.3454\H,0,13.7672,7.70303,16.6082\C,0,14.
 0977,6.06985,18.7544\H,0,13.7282,5.69123,19.5802\H,0,13.7614,5.56461,1
 7.9845\H,0,15.0765,6.01301,18.7785\\Version=EM64L-G09RevC.01\HF=-4575.
 2950686\RMSD=8.148e-09\PG=C01 [X(C88H108Si4)]\\@


 I MET A TRAVELLER FROM AN ANTIQUE LAND
 WHO SAID... TWO VAST AND TRUNKLESS LEGS OF STONE
 STAND IN THE DESERT..... NEAR THEM,  ON THE SAND,
 HALF SUNK,  A SHATTERED VISAGE LIES,  WHOSE FROWN,
 AND WRINKLED LIP,  AND SNEER OF COLD COMMAND
 TELL THAT ITS SCULPTOR WELL THOSE PASSIONS READ
 WHICH YET SURVIVE,  STAMPED ON THESE LIFELESS THINGS
 THE HAND THAT MOCKED THEM,  AND THE HEART THAT FED-
 AND ON THE PEDESTAL THESE WORDS APPEAR 
 MY NAME IS OZYMANDIAS, KING OF KINGS--   
 LOOK ON MY WORKS YE MIGHTY AND DESPAIR. 
 NOTHING BESIDE REMAINS,  ROUND THE DECAY 
 OF THAT COLOSSAL WRECK,  BOUNDLESS AND BARE
 THE LONE AND LEVEL SANDS STRETCH FAR AWAY.
                                    SHELLEY
 Job cpu time: 10 days 14 hours  9 minutes 24.8 seconds.
 File lengths (MBytes):  RWF=  18983 Int=      0 D2E=      0 Chk=   3114 Scr=      1
 Normal termination of Gaussian 09 at Wed Feb  6 00:18:24 2013.
