 Entering Gaussian System, Link 0=g03
 Input=k01029_full_PBC_vacuum.com
 Output=k01029_full_PBC_vacuum.log
 Initial command:
 /apps/gaussian/g09_c01/g09/l1.exe /tmp/pbs.3764040.cx1b/Gau-7171.inp -scrdir=/tmp/pbs.3764040.cx1b/
 Entering Link 1 = /apps/gaussian/g09_c01/g09/l1.exe PID=      7179.
  
 Copyright (c) 1988,1990,1992,1993,1995,1998,2003,2009,2011,
            Gaussian, Inc.  All Rights Reserved.
  
 This is part of the Gaussian(R) 09 program.  It is based on
 the Gaussian(R) 03 system (copyright 2003, Gaussian, Inc.),
 the Gaussian(R) 98 system (copyright 1998, Gaussian, Inc.),
 the Gaussian(R) 94 system (copyright 1995, Gaussian, Inc.),
 the Gaussian 92(TM) system (copyright 1992, Gaussian, Inc.),
 the Gaussian 90(TM) system (copyright 1990, Gaussian, Inc.),
 the Gaussian 88(TM) system (copyright 1988, Gaussian, Inc.),
 the Gaussian 86(TM) system (copyright 1986, Carnegie Mellon
 University), and the Gaussian 82(TM) system (copyright 1983,
 Carnegie Mellon University). Gaussian is a federally registered
 trademark of Gaussian, Inc.
  
 This software contains proprietary and confidential information,
 including trade secrets, belonging to Gaussian, Inc.
  
 This software is provided under written license and may be
 used, copied, transmitted, or stored only in accord with that
 written license.
  
 The following legend is applicable only to US Government
 contracts under FAR:
  
                    RESTRICTED RIGHTS LEGEND
  
 Use, reproduction and disclosure by the US Government is
 subject to restrictions as set forth in subparagraphs (a)
 and (c) of the Commercial Computer Software - Restricted
 Rights clause in FAR 52.227-19.
  
 Gaussian, Inc.
 340 Quinnipiac St., Bldg. 40, Wallingford CT 06492
  
  
 ---------------------------------------------------------------
 Warning -- This program may not be used in any manner that
 competes with the business of Gaussian, Inc. or will provide
 assistance to any competitor of Gaussian, Inc.  The licensee
 of this program is prohibited from giving any competitor of
 Gaussian, Inc. access to this program.  By using this program,
 the user acknowledges that Gaussian, Inc. is engaged in the
 business of creating and licensing software in the field of
 computational chemistry and represents and warrants to the
 licensee that it is not a competitor of Gaussian, Inc. and that
 it will not use this program in any manner prohibited above.
 ---------------------------------------------------------------
  

 Cite this work as:
 Gaussian 09, Revision C.01,
 M. J. Frisch, G. W. Trucks, H. B. Schlegel, G. E. Scuseria, 
 M. A. Robb, J. R. Cheeseman, G. Scalmani, V. Barone, B. Mennucci, 
 G. A. Petersson, H. Nakatsuji, M. Caricato, X. Li, H. P. Hratchian, 
 A. F. Izmaylov, J. Bloino, G. Zheng, J. L. Sonnenberg, M. Hada, 
 M. Ehara, K. Toyota, R. Fukuda, J. Hasegawa, M. Ishida, T. Nakajima, 
 Y. Honda, O. Kitao, H. Nakai, T. Vreven, J. A. Montgomery, Jr., 
 J. E. Peralta, F. Ogliaro, M. Bearpark, J. J. Heyd, E. Brothers, 
 K. N. Kudin, V. N. Staroverov, T. Keith, R. Kobayashi, J. Normand, 
 K. Raghavachari, A. Rendell, J. C. Burant, S. S. Iyengar, J. Tomasi, 
 M. Cossi, N. Rega, J. M. Millam, M. Klene, J. E. Knox, J. B. Cross, 
 V. Bakken, C. Adamo, J. Jaramillo, R. Gomperts, R. E. Stratmann, 
 O. Yazyev, A. J. Austin, R. Cammi, C. Pomelli, J. W. Ochterski, 
 R. L. Martin, K. Morokuma, V. G. Zakrzewski, G. A. Voth, 
 P. Salvador, J. J. Dannenberg, S. Dapprich, A. D. Daniels, 
 O. Farkas, J. B. Foresman, J. V. Ortiz, J. Cioslowski, 
 and D. J. Fox, Gaussian, Inc., Wallingford CT, 2010.
 
 ******************************************
 Gaussian 09:  EM64L-G09RevC.01 23-Sep-2011
                 1-Feb-2013 
 ******************************************
 %chk=k01029_full_PBC_vacuum.chk
 %Mem=8Gb
 %nproc=8
 Will use up to    8 processors via shared memory.
 ----------------------------------------------------------------
 #p scf=verytight b3lyp/6-31g(d,p) td(singlets,nstates=25) nosymm
 ----------------------------------------------------------------
 1/38=1/1;
 2/12=2,15=1,17=6,18=5,40=1/2;
 3/5=1,6=6,7=101,11=2,16=1,25=1,30=1,74=-5/1,2,8,3;
 4//1;
 5/5=2,17=3,38=5/2;
 8/6=1,10=2,108=25/1;
 9/41=25,42=1,48=1/14;
 6/7=2,8=2,9=2,10=2/1;
 99/5=1,9=1/99;
 Leave Link    1 at Fri Feb  1 21:50:32 2013, MaxMem= 1073741824 cpu:       0.2
 (Enter /apps/gaussian/g09_c01/g09/l101.exe)
 ----------------
 CSD ENTRY k01029
 ----------------
 Charge =  0 Multiplicity = 1
 Symbolic Z-Matrix:
 Si(PDBName=Si,ResName=UNK,ResNum=1)  7.32462   3.49406   13.73454 
 C(PDBName=C1,ResName=UNK,ResNum=1)  7.8952    5.27475   9.66925 
 C(PDBName=C2,ResName=UNK,ResNum=1)  6.90248   6.16343   9.19115 
 C(PDBName=C3,ResName=UNK,ResNum=1)  5.82251   6.57504   9.99184 
 H(PDBName=H3,ResName=UNK,ResNum=1)  5.77488   6.2656    10.88727 
 C(PDBName=C4,ResName=UNK,ResNum=1)  4.82732   7.41473   9.52558 
 C(PDBName=C5,ResName=UNK,ResNum=1)  3.72745   7.82639   10.33834 
 H(PDBName=H5,ResName=UNK,ResNum=1)  3.67046   7.52245   11.23778 
 C(PDBName=C6,ResName=UNK,ResNum=1)  2.76583   8.63928   9.85033 
 H(PDBName=H6,ResName=UNK,ResNum=1)  2.04726   8.90783   10.41107 
 C(PDBName=C7,ResName=UNK,ResNum=1)  2.82228   9.09626   8.50712 
 H(PDBName=H7,ResName=UNK,ResNum=1)  2.13484   9.66213   8.17498 
 C(PDBName=C8,ResName=UNK,ResNum=1)  3.83791   8.73828   7.69838 
 H(PDBName=H8,ResName=UNK,ResNum=1)  3.85917   9.05918   6.80471 
 C(PDBName=C9,ResName=UNK,ResNum=1)  4.88648   7.88165   8.1641 
 C(PDBName=C10,ResName=UNK,ResNum=1)  5.95057   7.50193   7.36834 
 H(PDBName=H10,ResName=UNK,ResNum=1)  5.9942    7.82561   6.47545 
 C(PDBName=C11,ResName=UNK,ResNum=1)  6.97287   6.64975   7.83073 
 C(PDBName=C12,ResName=UNK,ResNum=1)  7.7749    4.74422   10.99811 
 C(PDBName=C13,ResName=UNK,ResNum=1)  7.63091   4.266     12.09567 
 C(PDBName=C14,ResName=UNK,ResNum=1)  7.49985   1.62842   13.53715 
 H(PDBName=H14,ResName=UNK,ResNum=1)  7.33158   1.21444   14.43072 
 C(PDBName=C15,ResName=UNK,ResNum=1)  6.46823   1.04703   12.55338 
 H(PDBName=H15A,ResName=UNK,ResNum=1)  6.55448   1.49646   11.68554 
 H(PDBName=H15B,ResName=UNK,ResNum=1)  5.56563   1.1873    12.90736 
 H(PDBName=H15C,ResName=UNK,ResNum=1)  6.62993   0.08717   12.4404 
 C(PDBName=C16,ResName=UNK,ResNum=1)  8.91997   1.24171   13.10837 
 H(PDBName=H16A,ResName=UNK,ResNum=1)  8.97601   0.26859   13.00293 
 H(PDBName=H16B,ResName=UNK,ResNum=1)  9.55799   1.53244   13.79244 
 H(PDBName=H16C,ResName=UNK,ResNum=1)  9.13397   1.67605   12.25761 
 C(PDBName=C17,ResName=UNK,ResNum=1)  8.65152   4.13965   14.89511 
 H(PDBName=H17,ResName=UNK,ResNum=1)  9.52442   3.90315   14.46884 
 C(PDBName=C18,ResName=UNK,ResNum=1)  8.66549   3.47236   16.2714 
 H(PDBName=H18A,ResName=UNK,ResNum=1)  9.47245   3.7436    16.75626 
 H(PDBName=H18B,ResName=UNK,ResNum=1)  8.6619    2.49852   16.16395 
 H(PDBName=H18C,ResName=UNK,ResNum=1)  7.8732    3.74819   16.77634 
 C(PDBName=C19,ResName=UNK,ResNum=1)  8.65419   5.66224   15.03605 
 H(PDBName=H19A,ResName=UNK,ResNum=1)  7.83292   5.94888   15.48773 
 H(PDBName=H19B,ResName=UNK,ResNum=1)  8.69907   6.07195   14.14889 
 H(PDBName=H19C,ResName=UNK,ResNum=1)  9.43158   5.93994   15.56316 
 C(PDBName=C20,ResName=UNK,ResNum=1)  5.57435   3.93663   14.24247 
 H(PDBName=H20,ResName=UNK,ResNum=1)  5.02319   3.48799   13.53705 
 C(PDBName=C21,ResName=UNK,ResNum=1)  5.14579   3.23008   15.48524 
 H(PDBName=H21A,ResName=UNK,ResNum=1)  5.48826   2.31096   15.47498 
 H(PDBName=H21B,ResName=UNK,ResNum=1)  4.167     3.21252   15.5308 
 H(PDBName=H21C,ResName=UNK,ResNum=1)  5.50069   3.7012    16.26802 
 C(PDBName=C22,ResName=UNK,ResNum=1)  5.16917   5.33444   14.12193 
 H(PDBName=H22A,ResName=UNK,ResNum=1)  5.53964   5.71201   13.29601 
 H(PDBName=H22B,ResName=UNK,ResNum=1)  5.50544   5.83869   14.89183 
 H(PDBName=H22C,ResName=UNK,ResNum=1)  4.19131   5.39022   14.09773 
 Si(PDBName=Si,ResName=UNK,ResNum=1)  8.62412   8.03391   2.94371 
 C(PDBName=C1,ResName=UNK,ResNum=1)  8.05348   6.25221   7.009 
 C(PDBName=C2,ResName=UNK,ResNum=1)  9.0462    5.36354   7.4871 
 C(PDBName=C3,ResName=UNK,ResNum=1)  10.12518   4.95198   6.68651 
 H(PDBName=H3,ResName=UNK,ResNum=1)  10.17385   5.26236   5.79098 
 C(PDBName=C4,ResName=UNK,ResNum=1)  11.12136   4.11223   7.15267 
 C(PDBName=C5,ResName=UNK,ResNum=1)  12.22129   3.70158   6.33992 
 H(PDBName=H5,ResName=UNK,ResNum=1)  12.27823   4.00452   5.44047 
 C(PDBName=C6,ResName=UNK,ResNum=1)  13.18291   2.88868   6.82792 
 H(PDBName=H6,ResName=UNK,ResNum=1)  13.90142   2.61913   6.26718 
 C(PDBName=C7,ResName=UNK,ResNum=1)  13.1264   2.43071   8.17113 
 H(PDBName=H7,ResName=UNK,ResNum=1)  13.8139   1.86584   8.50327 
 C(PDBName=C8,ResName=UNK,ResNum=1)  12.11077   2.78868   8.97987 
 H(PDBName=H8,ResName=UNK,ResNum=1)  12.08951   2.46778   9.87354 
 C(PDBName=C9,ResName=UNK,ResNum=1)  11.0622   3.64532   8.51415 
 C(PDBName=C10,ResName=UNK,ResNum=1)  9.99717   4.02609   9.31002 
 H(PDBName=H10,ResName=UNK,ResNum=1)  9.95448   3.70136   10.2028 
 C(PDBName=C11,ResName=UNK,ResNum=1)  8.97481   4.87727   8.84762 
 C(PDBName=C12,ResName=UNK,ResNum=1)  8.17379   6.78274   5.68014 
 C(PDBName=C13,ResName=UNK,ResNum=1)  8.31777   7.26097   4.58258 
 C(PDBName=C14,ResName=UNK,ResNum=1)  8.44883   9.89854   3.1411 
 H(PDBName=H14,ResName=UNK,ResNum=1)  8.61617   10.31358   2.24764 
 C(PDBName=C15,ResName=UNK,ResNum=1)  9.47946   10.47999   4.12497 
 H(PDBName=H15A,ResName=UNK,ResNum=1)  9.3942    10.03051   4.99271 
 H(PDBName=H15B,ResName=UNK,ResNum=1)  10.38306   10.33966   3.7709 
 H(PDBName=H15C,ResName=UNK,ResNum=1)  9.31881   11.44079   4.23785 
 C(PDBName=C16,ResName=UNK,ResNum=1)  7.02872   10.28525   3.56988 
 H(PDBName=H16A,ResName=UNK,ResNum=1)  6.97267   11.25837   3.67532 
 H(PDBName=H16B,ResName=UNK,ResNum=1)  6.39069   9.99453   2.88581 
 H(PDBName=H16C,ResName=UNK,ResNum=1)  6.81372   9.85097   4.42074 
 C(PDBName=C17,ResName=UNK,ResNum=1)  7.29722   7.38831   1.78315 
 H(PDBName=H17,ResName=UNK,ResNum=1)  6.42327   7.62387   2.20951 
 C(PDBName=C18,ResName=UNK,ResNum=1)  7.28226   8.05565   0.40695 
 H(PDBName=H18A,ResName=UNK,ResNum=1)  6.47523   7.78342  -0.07791 
 H(PDBName=H18B,ResName=UNK,ResNum=1)  7.28579   9.0285    0.51441 
 H(PDBName=H18C,ResName=UNK,ResNum=1)  8.07549   7.77878  -0.09808 
 C(PDBName=C19,ResName=UNK,ResNum=1)  7.29455   5.86572   1.64221 
 H(PDBName=H19A,ResName=UNK,ResNum=1)  8.11577   5.57808   1.19052 
 H(PDBName=H19B,ResName=UNK,ResNum=1)  7.24962   5.45501   2.52936 
 H(PDBName=H19C,ResName=UNK,ResNum=1)  6.51716   5.58803   1.11509 
 C(PDBName=C20,ResName=UNK,ResNum=1)  10.37439   7.59133   2.43578 
 H(PDBName=H20,ResName=UNK,ResNum=1)  10.92549   8.03897   3.1412 
 C(PDBName=C21,ResName=UNK,ResNum=1)  10.80295   8.29788   1.19302 
 H(PDBName=H21A,ResName=UNK,ResNum=1)  10.45943   9.21606   1.20337 
 H(PDBName=H21B,ResName=UNK,ResNum=1)  11.78169   8.31444   1.14745 
 H(PDBName=H21C,ResName=UNK,ResNum=1)  10.44805   7.82676   0.41024 
 C(PDBName=C22,ResName=UNK,ResNum=1)  10.77857   6.19358   2.55643 
 H(PDBName=H22A,ResName=UNK,ResNum=1)  10.40905   5.81495   3.38224 
 H(PDBName=H22B,ResName=UNK,ResNum=1)  10.44225   5.68833   1.78652 
 H(PDBName=H22C,ResName=UNK,ResNum=1)  11.75738   6.13674   2.58052 
 
 NAtoms=    100 NQM=        0 NQMF=       0 NMMI=    100 NMMIF=      0
                NMic=       0 NMicF=      0.
                    Isotopes and Nuclear Properties:
 (Nuclear quadrupole moments (NQMom) in fm**2, nuclear magnetic moments (NMagM)
  in nuclear magnetons)

  Atom         1           2           3           4           5           6           7           8           9          10
 IAtWgt=          28          12          12          12           1          12          12           1          12           1
 AtmWgt=  27.9769284  12.0000000  12.0000000  12.0000000   1.0078250  12.0000000  12.0000000   1.0078250  12.0000000   1.0078250
 NucSpn=           0           0           0           0           1           0           0           1           0           1
 AtZEff=   0.0000000   0.0000000   0.0000000   0.0000000   0.0000000   0.0000000   0.0000000   0.0000000   0.0000000   0.0000000
 NQMom=    0.0000000   0.0000000   0.0000000   0.0000000   0.0000000   0.0000000   0.0000000   0.0000000   0.0000000   0.0000000
 NMagM=    0.0000000   0.0000000   0.0000000   0.0000000   2.7928460   0.0000000   0.0000000   2.7928460   0.0000000   2.7928460

  Atom        11          12          13          14          15          16          17          18          19          20
 IAtWgt=          12           1          12           1          12          12           1          12          12          12
 AtmWgt=  12.0000000   1.0078250  12.0000000   1.0078250  12.0000000  12.0000000   1.0078250  12.0000000  12.0000000  12.0000000
 NucSpn=           0           1           0           1           0           0           1           0           0           0
 AtZEff=   0.0000000   0.0000000   0.0000000   0.0000000   0.0000000   0.0000000   0.0000000   0.0000000   0.0000000   0.0000000
 NQMom=    0.0000000   0.0000000   0.0000000   0.0000000   0.0000000   0.0000000   0.0000000   0.0000000   0.0000000   0.0000000
 NMagM=    0.0000000   2.7928460   0.0000000   2.7928460   0.0000000   0.0000000   2.7928460   0.0000000   0.0000000   0.0000000

  Atom        21          22          23          24          25          26          27          28          29          30
 IAtWgt=          12           1          12           1           1           1          12           1           1           1
 AtmWgt=  12.0000000   1.0078250  12.0000000   1.0078250   1.0078250   1.0078250  12.0000000   1.0078250   1.0078250   1.0078250
 NucSpn=           0           1           0           1           1           1           0           1           1           1
 AtZEff=   0.0000000   0.0000000   0.0000000   0.0000000   0.0000000   0.0000000   0.0000000   0.0000000   0.0000000   0.0000000
 NQMom=    0.0000000   0.0000000   0.0000000   0.0000000   0.0000000   0.0000000   0.0000000   0.0000000   0.0000000   0.0000000
 NMagM=    0.0000000   2.7928460   0.0000000   2.7928460   2.7928460   2.7928460   0.0000000   2.7928460   2.7928460   2.7928460

  Atom        31          32          33          34          35          36          37          38          39          40
 IAtWgt=          12           1          12           1           1           1          12           1           1           1
 AtmWgt=  12.0000000   1.0078250  12.0000000   1.0078250   1.0078250   1.0078250  12.0000000   1.0078250   1.0078250   1.0078250
 NucSpn=           0           1           0           1           1           1           0           1           1           1
 AtZEff=   0.0000000   0.0000000   0.0000000   0.0000000   0.0000000   0.0000000   0.0000000   0.0000000   0.0000000   0.0000000
 NQMom=    0.0000000   0.0000000   0.0000000   0.0000000   0.0000000   0.0000000   0.0000000   0.0000000   0.0000000   0.0000000
 NMagM=    0.0000000   2.7928460   0.0000000   2.7928460   2.7928460   2.7928460   0.0000000   2.7928460   2.7928460   2.7928460

  Atom        41          42          43          44          45          46          47          48          49          50
 IAtWgt=          12           1          12           1           1           1          12           1           1           1
 AtmWgt=  12.0000000   1.0078250  12.0000000   1.0078250   1.0078250   1.0078250  12.0000000   1.0078250   1.0078250   1.0078250
 NucSpn=           0           1           0           1           1           1           0           1           1           1
 AtZEff=   0.0000000   0.0000000   0.0000000   0.0000000   0.0000000   0.0000000   0.0000000   0.0000000   0.0000000   0.0000000
 NQMom=    0.0000000   0.0000000   0.0000000   0.0000000   0.0000000   0.0000000   0.0000000   0.0000000   0.0000000   0.0000000
 NMagM=    0.0000000   2.7928460   0.0000000   2.7928460   2.7928460   2.7928460   0.0000000   2.7928460   2.7928460   2.7928460

  Atom        51          52          53          54          55          56          57          58          59          60
 IAtWgt=          28          12          12          12           1          12          12           1          12           1
 AtmWgt=  27.9769284  12.0000000  12.0000000  12.0000000   1.0078250  12.0000000  12.0000000   1.0078250  12.0000000   1.0078250
 NucSpn=           0           0           0           0           1           0           0           1           0           1
 AtZEff=   0.0000000   0.0000000   0.0000000   0.0000000   0.0000000   0.0000000   0.0000000   0.0000000   0.0000000   0.0000000
 NQMom=    0.0000000   0.0000000   0.0000000   0.0000000   0.0000000   0.0000000   0.0000000   0.0000000   0.0000000   0.0000000
 NMagM=    0.0000000   0.0000000   0.0000000   0.0000000   2.7928460   0.0000000   0.0000000   2.7928460   0.0000000   2.7928460

  Atom        61          62          63          64          65          66          67          68          69          70
 IAtWgt=          12           1          12           1          12          12           1          12          12          12
 AtmWgt=  12.0000000   1.0078250  12.0000000   1.0078250  12.0000000  12.0000000   1.0078250  12.0000000  12.0000000  12.0000000
 NucSpn=           0           1           0           1           0           0           1           0           0           0
 AtZEff=   0.0000000   0.0000000   0.0000000   0.0000000   0.0000000   0.0000000   0.0000000   0.0000000   0.0000000   0.0000000
 NQMom=    0.0000000   0.0000000   0.0000000   0.0000000   0.0000000   0.0000000   0.0000000   0.0000000   0.0000000   0.0000000
 NMagM=    0.0000000   2.7928460   0.0000000   2.7928460   0.0000000   0.0000000   2.7928460   0.0000000   0.0000000   0.0000000

  Atom        71          72          73          74          75          76          77          78          79          80
 IAtWgt=          12           1          12           1           1           1          12           1           1           1
 AtmWgt=  12.0000000   1.0078250  12.0000000   1.0078250   1.0078250   1.0078250  12.0000000   1.0078250   1.0078250   1.0078250
 NucSpn=           0           1           0           1           1           1           0           1           1           1
 AtZEff=   0.0000000   0.0000000   0.0000000   0.0000000   0.0000000   0.0000000   0.0000000   0.0000000   0.0000000   0.0000000
 NQMom=    0.0000000   0.0000000   0.0000000   0.0000000   0.0000000   0.0000000   0.0000000   0.0000000   0.0000000   0.0000000
 NMagM=    0.0000000   2.7928460   0.0000000   2.7928460   2.7928460   2.7928460   0.0000000   2.7928460   2.7928460   2.7928460

  Atom        81          82          83          84          85          86          87          88          89          90
 IAtWgt=          12           1          12           1           1           1          12           1           1           1
 AtmWgt=  12.0000000   1.0078250  12.0000000   1.0078250   1.0078250   1.0078250  12.0000000   1.0078250   1.0078250   1.0078250
 NucSpn=           0           1           0           1           1           1           0           1           1           1
 AtZEff=   0.0000000   0.0000000   0.0000000   0.0000000   0.0000000   0.0000000   0.0000000   0.0000000   0.0000000   0.0000000
 NQMom=    0.0000000   0.0000000   0.0000000   0.0000000   0.0000000   0.0000000   0.0000000   0.0000000   0.0000000   0.0000000
 NMagM=    0.0000000   2.7928460   0.0000000   2.7928460   2.7928460   2.7928460   0.0000000   2.7928460   2.7928460   2.7928460

  Atom        91          92          93          94          95          96          97          98          99         100
 IAtWgt=          12           1          12           1           1           1          12           1           1           1
 AtmWgt=  12.0000000   1.0078250  12.0000000   1.0078250   1.0078250   1.0078250  12.0000000   1.0078250   1.0078250   1.0078250
 NucSpn=           0           1           0           1           1           1           0           1           1           1
 AtZEff=   0.0000000   0.0000000   0.0000000   0.0000000   0.0000000   0.0000000   0.0000000   0.0000000   0.0000000   0.0000000
 NQMom=    0.0000000   0.0000000   0.0000000   0.0000000   0.0000000   0.0000000   0.0000000   0.0000000   0.0000000   0.0000000
 NMagM=    0.0000000   2.7928460   0.0000000   2.7928460   2.7928460   2.7928460   0.0000000   2.7928460   2.7928460   2.7928460
 Residue   1 PDB Number     1_0 UNK charge    0.00000000 ave dist        0.000
 Leave Link  101 at Fri Feb  1 21:50:32 2013, MaxMem= 1073741824 cpu:       0.7
 (Enter /apps/gaussian/g09_c01/g09/l202.exe)
 Symmetry turned off by external request.
 Stoichiometry    C44H54Si2
 Framework group  C1[X(C44H54Si2)]
 Deg. of freedom   294
 Full point group                 C1      NOp   1
                          Input orientation:                          
 ---------------------------------------------------------------------
 Center     Atomic      Atomic             Coordinates (Angstroms)
 Number     Number       Type             X           Y           Z
 ---------------------------------------------------------------------
      1         14           0        7.324622    3.494057   13.734540
      2          6           0        7.895200    5.274755    9.669250
      3          6           0        6.902481    6.163429    9.191150
      4          6           0        5.822514    6.575043    9.991839
      5          1           0        5.774883    6.265600   10.887273
      6          6           0        4.827323    7.414731    9.525582
      7          6           0        3.727446    7.826388   10.338336
      8          1           0        3.670457    7.522450   11.237785
      9          6           0        2.765829    8.639283    9.850334
     10          1           0        2.047264    8.907831   10.411066
     11          6           0        2.822281    9.096259    8.507123
     12          1           0        2.134840    9.662127    8.174980
     13          6           0        3.837914    8.738285    7.698377
     14          1           0        3.859170    9.059184    6.804715
     15          6           0        4.886485    7.881647    8.164099
     16          6           0        5.950572    7.501932    7.368337
     17          1           0        5.994204    7.825606    6.475454
     18          6           0        6.972875    6.649754    7.830727
     19          6           0        7.774897    4.744225   10.998113
     20          6           0        7.630909    4.265999   12.095672
     21          6           0        7.499851    1.628423   13.537146
     22          1           0        7.331579    1.214442   14.430715
     23          6           0        6.468229    1.047033   12.553383
     24          1           0        6.554478    1.496460   11.685536
     25          1           0        5.565627    1.187303   12.907355
     26          1           0        6.629925    0.087171   12.440401
     27          6           0        8.919967    1.241712   13.108371
     28          1           0        8.976011    0.268591   13.002933
     29          1           0        9.557995    1.532438   13.792439
     30          1           0        9.133966    1.676045   12.257614
     31          6           0        8.651520    4.139651   14.895107
     32          1           0        9.524416    3.903152   14.468839
     33          6           0        8.665488    3.472364   16.271401
     34          1           0        9.472455    3.743598   16.756263
     35          1           0        8.661897    2.498519   16.163946
     36          1           0        7.873196    3.748188   16.776335
     37          6           0        8.654191    5.662241   15.036047
     38          1           0        7.832916    5.948884   15.487729
     39          1           0        8.699067    6.071954   14.148887
     40          1           0        9.431580    5.939937   15.563164
     41          6           0        5.574349    3.936634   14.242474
     42          1           0        5.023189    3.487993   13.537053
     43          6           0        5.145792    3.230079   15.485239
     44          1           0        5.488258    2.310959   15.474981
     45          1           0        4.166996    3.212523   15.530797
     46          1           0        5.500689    3.701203   16.268019
     47          6           0        5.169171    5.334439   14.121928
     48          1           0        5.539637    5.712011   13.296012
     49          1           0        5.505438    5.838685   14.891831
     50          1           0        4.191306    5.390222   14.097732
     51         14           0        8.624116    8.033907    2.943714
     52          6           0        8.053483    6.252211    7.009000
     53          6           0        9.046202    5.363536    7.487101
     54          6           0       10.125175    4.951977    6.686513
     55          1           0       10.173854    5.262364    5.790982
     56          6           0       11.121360    4.112234    7.152669
     57          6           0       12.221292    3.701576    6.339919
     58          1           0       12.278226    4.004515    5.440466
     59          6           0       13.182908    2.888681    6.827921
     60          1           0       13.901418    2.619134    6.267184
     61          6           0       13.126402    2.430707    8.171128
     62          1           0       13.813898    1.865837    8.503275
     63          6           0       12.110768    2.788681    8.979874
     64          1           0       12.089513    2.467782    9.873536
     65          6           0       11.062198    3.645319    8.514152
     66          6           0        9.997172    4.026086    9.310019
     67          1           0        9.954479    3.701360   10.202797
     68          6           0        8.974815    4.877265    8.847624
     69          6           0        8.173786    6.782740    5.680137
     70          6           0        8.317774    7.260967    4.582578
     71          6           0        8.448832    9.898543    3.141105
     72          1           0        8.616165   10.313576    2.247640
     73          6           0        9.479460   10.479987    4.124968
     74          1           0        9.394205   10.030505    4.992714
     75          1           0       10.383056   10.339662    3.770896
     76          1           0        9.318812   11.440793    4.237854
     77          6           0        7.028715   10.285254    3.569879
     78          1           0        6.972671   11.258375    3.675318
     79          1           0        6.390688    9.994528    2.885811
     80          1           0        6.813723    9.850974    4.420738
     81          6           0        7.297218    7.388313    1.783147
     82          1           0        6.423273    7.623867    2.209513
     83          6           0        7.282255    8.055654    0.406955
     84          1           0        6.475235    7.783422   -0.077912
     85          1           0        7.285792    9.028500    0.514406
     86          1           0        8.075486    7.778777   -0.098085
     87          6           0        7.294546    5.865723    1.642207
     88          1           0        8.115767    5.578082    1.190522
     89          1           0        7.249615    5.455012    2.529364
     90          1           0        6.517157    5.588027    1.115090
     91          6           0       10.374388    7.591330    2.435781
     92          1           0       10.925493    8.038973    3.141197
     93          6           0       10.802945    8.297884    1.193015
     94          1           0       10.459431    9.216061    1.203371
     95          1           0       11.781687    8.314442    1.147454
     96          1           0       10.448049    7.826761    0.410236
     97          6           0       10.778573    6.193579    2.556428
     98          1           0       10.409046    5.814955    3.382238
     99          1           0       10.442252    5.688334    1.786520
    100          1           0       11.757376    6.136743    2.580518
 ---------------------------------------------------------------------
 Rotational constants (GHZ):      0.0871212      0.0337010      0.0262452
 Leave Link  202 at Fri Feb  1 21:50:32 2013, MaxMem= 1073741824 cpu:       0.1
 (Enter /apps/gaussian/g09_c01/g09/l301.exe)
 Standard basis: 6-31G(d,p) (6D, 7F)
 Ernie: Thresh=  0.10000D-02 Tol=  0.10000D-05 Strict=F.
 Integral buffers will be    131072 words long.
 Raffenetti 2 integral format.
 Two-electron integral symmetry is turned off.
   968 basis functions,  1714 primitive gaussians,   968 cartesian basis functions
   173 alpha electrons      173 beta electrons
       nuclear repulsion energy      5854.2137940557 Hartrees.
 IExCor=  402 DFT=T Ex+Corr=B3LYP ExCW=0 ScaHFX=  0.200000
 ScaDFX=  0.800000  0.720000  1.000000  0.810000 ScalE2=  1.000000  1.000000
 IRadAn=      0 IRanWt=     -1 IRanGd=            0 ICorTp=0
 NAtoms=  100 NActive=  100 NUniq=  100 SFac= 1.00D+00 NAtFMM=   60 NAOKFM=T Big=T
 Leave Link  301 at Fri Feb  1 21:50:32 2013, MaxMem= 1073741824 cpu:       0.7
 (Enter /apps/gaussian/g09_c01/g09/l302.exe)
 NPDir=0 NMtPBC=     1 NCelOv=     1 NCel=       1 NClECP=     1 NCelD=      1
         NCelK=      1 NCelE2=     1 NClLst=     1 CellRange=     0.0.
 One-electron integrals computed using PRISM.
 NBasis=   968 RedAO= T  NBF=   968
 NBsUse=   968 1.00D-06 NBFU=   968
 Precomputing XC quadrature grid using
 IXCGrd= 2 IRadAn=           0 IRanWt=          -1 IRanGd=           0 AccXCQ= 0.00D+00.
 NRdTot=    6498 NPtTot=      830264 NUsed=      877063 NTot=      877095
 NSgBfM=   893   894   894   896   897 NAtAll=   100   100.
 Leave Link  302 at Fri Feb  1 21:50:37 2013, MaxMem= 1073741824 cpu:      34.1
 (Enter /apps/gaussian/g09_c01/g09/l308.exe)
 Leave Link  308 at Fri Feb  1 21:50:37 2013, MaxMem= 1073741824 cpu:       3.5
 (Enter /apps/gaussian/g09_c01/g09/l303.exe)
 DipDrv:  MaxL=1.
 Leave Link  303 at Fri Feb  1 21:50:38 2013, MaxMem= 1073741824 cpu:       2.3
 (Enter /apps/gaussian/g09_c01/g09/l401.exe)
 Harris functional with IExCor=  402 diagonalized for initial guess.
 ExpMin= 7.78D-02 ExpMax= 1.61D+04 ExpMxC= 2.43D+03 IAcc=2 IRadAn=         4 AccDes= 0.00D+00
 HarFok:  IExCor=  402 AccDes= 0.00D+00 IRadAn=         4 IDoV= 1
 ScaDFX=  1.000000  1.000000  1.000000  1.000000
 FoFCou: FMM=F IPFlag=           0 FMFlag=      100000 FMFlg1=        2001
         NFxFlg=           0 DoJE=T BraDBF=F KetDBF=T FulRan=T
         Omega=  0.000000  0.000000  1.000000  0.000000  0.000000 ICntrl=     500 IOpCl=  0
         NMat0=    1 NMatS0=    1 NMatT0=    0 NMatD0=    1 NMtDS0=    0 NMtDT0=    0
         I1Cent=           4 NGrid=           0.
 Symmetry not used in FoFCou.
 Harris En= -2288.35913976557    
 Leave Link  401 at Fri Feb  1 21:50:47 2013, MaxMem= 1073741824 cpu:      77.9
 (Enter /apps/gaussian/g09_c01/g09/l502.exe)
 Closed shell SCF:
 Requested convergence on RMS density matrix=1.00D-08 within 128 cycles.
 Requested convergence on MAX density matrix=1.00D-06.
 Requested convergence on             energy=1.00D-06.
 No special actions if energy rises.
 Using DIIS extrapolation, IDIIS=  1040.
 Two-electron integral symmetry not used.
       876150 words used for storage of precomputed grid.
 IEnd=     3719120 IEndB=     3719120 NGot=  1073741824 MDV=  1070977337
 LenX=  1070977337 LenY=  1070039345
 Fock matrices will be formed incrementally for  20 cycles.
 Integral accuracy reduced to 1.0D-05 until final iterations.

 Cycle   1  Pass 0  IDiag  1:
 FoFCou: FMM=T IPFlag=           0 FMFlag=      100000 FMFlg1=        2001
         NFxFlg=           0 DoJE=F BraDBF=F KetDBF=F FulRan=T
         Omega=  0.000000  0.000000  1.000000  0.000000  0.000000 ICntrl=       0 IOpCl=  0
         NMat0=    1 NMatS0=    1 NMatT0=    0 NMatD0=    1 NMtDS0=    0 NMtDT0=    0
         I1Cent=           0 NGrid=           0.
 Symmetry not used in FoFCou.
 FMM levels:  10  Number of levels for PrismC:   9
 E= -2285.86666542419    
 DIIS: error= 3.91D-02 at cycle   1 NSaved=   1.
 NSaved= 1 IEnMin= 1 EnMin= -2285.86666542419     IErMin= 1 ErrMin= 3.91D-02
 ErrMax= 3.91D-02 EMaxC= 1.00D-01 BMatC= 1.68D+00 BMatP= 1.68D+00
 IDIUse=3 WtCom= 6.09D-01 WtEn= 3.91D-01
 Coeff-Com:  0.100D+01
 Coeff-En:   0.100D+01
 Coeff:      0.100D+01
 Gap=     0.085 Goal=   None    Shift=    0.000
 GapD=    0.085 DampG=0.500 DampE=0.500 DampFc=0.2500 IDamp=-1.
 Damping current iteration by 2.50D-01
 RMSDP=3.30D-03 MaxDP=1.61D-01              OVMax= 1.97D-01

 Cycle   2  Pass 0  IDiag  1:
 RMSU=  5.54D-04    CP:  9.76D-01
 E= -2286.50532322665     Delta-E=       -0.638657802452 Rises=F Damp=T
 DIIS: error= 2.35D-02 at cycle   2 NSaved=   2.
 NSaved= 2 IEnMin= 2 EnMin= -2286.50532322665     IErMin= 2 ErrMin= 2.35D-02
 ErrMax= 2.35D-02 EMaxC= 1.00D-01 BMatC= 4.68D-01 BMatP= 1.68D+00
 IDIUse=3 WtCom= 7.65D-01 WtEn= 2.35D-01
 Coeff-Com: -0.986D+00 0.199D+01
 Coeff-En:   0.000D+00 0.100D+01
 Coeff:     -0.754D+00 0.175D+01
 Gap=     0.091 Goal=   None    Shift=    0.000
 RMSDP=1.59D-03 MaxDP=1.51D-01 DE=-6.39D-01 OVMax= 1.69D-01

 Cycle   3  Pass 0  IDiag  1:
 RMSU=  6.69D-04    CP:  9.14D-01  2.41D+00
 E= -2287.58903490102     Delta-E=       -1.083711674370 Rises=F Damp=F
 DIIS: error= 1.26D-02 at cycle   3 NSaved=   3.
 NSaved= 3 IEnMin= 3 EnMin= -2287.58903490102     IErMin= 3 ErrMin= 1.26D-02
 ErrMax= 1.26D-02 EMaxC= 1.00D-01 BMatC= 5.42D-02 BMatP= 4.68D-01
 IDIUse=3 WtCom= 8.74D-01 WtEn= 1.26D-01
 Coeff-Com: -0.353D+00 0.783D+00 0.570D+00
 Coeff-En:   0.000D+00 0.000D+00 0.100D+01
 Coeff:     -0.308D+00 0.684D+00 0.624D+00
 Gap=     0.078 Goal=   None    Shift=    0.000
 RMSDP=5.53D-04 MaxDP=3.78D-02 DE=-1.08D+00 OVMax= 1.18D-01

 Cycle   4  Pass 0  IDiag  1:
 RMSU=  3.39D-04    CP:  9.20D-01  2.30D+00  7.30D-01
 E= -2287.58214739690     Delta-E=        0.006887504119 Rises=F Damp=F
 DIIS: error= 1.30D-02 at cycle   4 NSaved=   4.
 NSaved= 4 IEnMin= 3 EnMin= -2287.58903490102     IErMin= 3 ErrMin= 1.26D-02
 ErrMax= 1.30D-02 EMaxC= 1.00D-01 BMatC= 6.04D-02 BMatP= 5.42D-02
 IDIUse=2 WtCom= 0.00D+00 WtEn= 1.00D+00
 Coeff-En:   0.000D+00 0.000D+00 0.520D+00 0.480D+00
 Coeff:      0.000D+00 0.000D+00 0.520D+00 0.480D+00
 Gap=     0.075 Goal=   None    Shift=    0.000
 RMSDP=3.29D-04 MaxDP=2.95D-02 DE= 6.89D-03 OVMax= 8.05D-02

 Cycle   5  Pass 0  IDiag  1:
 RMSU=  1.04D-04    CP:  9.21D-01  2.22D+00  8.41D-01  4.43D-01
 E= -2287.64534322744     Delta-E=       -0.063195830538 Rises=F Damp=F
 DIIS: error= 2.85D-03 at cycle   5 NSaved=   5.
 NSaved= 5 IEnMin= 5 EnMin= -2287.64534322744     IErMin= 5 ErrMin= 2.85D-03
 ErrMax= 2.85D-03 EMaxC= 1.00D-01 BMatC= 7.97D-03 BMatP= 5.42D-02
 IDIUse=3 WtCom= 9.71D-01 WtEn= 2.85D-02
 Coeff-Com: -0.214D-01 0.498D-01 0.248D+00 0.291D+00 0.433D+00
 Coeff-En:   0.000D+00 0.000D+00 0.000D+00 0.110D+00 0.890D+00
 Coeff:     -0.208D-01 0.484D-01 0.241D+00 0.286D+00 0.446D+00
 Gap=     0.073 Goal=   None    Shift=    0.000
 RMSDP=1.10D-04 MaxDP=1.38D-02 DE=-6.32D-02 OVMax= 1.96D-02

 Cycle   6  Pass 0  IDiag  1:
 RMSU=  3.40D-05    CP:  9.19D-01  2.28D+00  8.52D-01  4.85D-01  4.39D-01
 E= -2287.65289531930     Delta-E=       -0.007552091863 Rises=F Damp=F
 DIIS: error= 8.51D-04 at cycle   6 NSaved=   6.
 NSaved= 6 IEnMin= 6 EnMin= -2287.65289531930     IErMin= 6 ErrMin= 8.51D-04
 ErrMax= 8.51D-04 EMaxC= 1.00D-01 BMatC= 4.53D-04 BMatP= 7.97D-03
 IDIUse=3 WtCom= 9.91D-01 WtEn= 8.51D-03
 Coeff-Com: -0.857D-02 0.132D-01 0.941D-01 0.135D+00 0.283D+00 0.484D+00
 Coeff-En:   0.000D+00 0.000D+00 0.000D+00 0.000D+00 0.000D+00 0.100D+01
 Coeff:     -0.849D-02 0.131D-01 0.933D-01 0.133D+00 0.280D+00 0.488D+00
 Gap=     0.073 Goal=   None    Shift=    0.000
 RMSDP=2.87D-05 MaxDP=2.70D-03 DE=-7.55D-03 OVMax= 5.81D-03

 Cycle   7  Pass 0  IDiag  1:
 RMSU=  1.20D-05    CP:  9.19D-01  2.28D+00  8.48D-01  5.01D-01  5.06D-01
                    CP:  6.02D-01
 E= -2287.65336147716     Delta-E=       -0.000466157864 Rises=F Damp=F
 DIIS: error= 1.32D-04 at cycle   7 NSaved=   7.
 NSaved= 7 IEnMin= 7 EnMin= -2287.65336147716     IErMin= 7 ErrMin= 1.32D-04
 ErrMax= 1.32D-04 EMaxC= 1.00D-01 BMatC= 2.87D-05 BMatP= 4.53D-04
 IDIUse=3 WtCom= 9.99D-01 WtEn= 1.32D-03
 Coeff-Com: -0.287D-02 0.288D-02 0.244D-01 0.413D-01 0.103D+00 0.267D+00
 Coeff-Com:  0.564D+00
 Coeff-En:   0.000D+00 0.000D+00 0.000D+00 0.000D+00 0.000D+00 0.000D+00
 Coeff-En:   0.100D+01
 Coeff:     -0.286D-02 0.288D-02 0.244D-01 0.412D-01 0.103D+00 0.266D+00
 Coeff:      0.565D+00
 Gap=     0.073 Goal=   None    Shift=    0.000
 RMSDP=7.52D-06 MaxDP=5.78D-04 DE=-4.66D-04 OVMax= 9.25D-04

 Initial convergence to 1.0D-05 achieved.  Increase integral accuracy.
 Cycle   8  Pass 1  IDiag  1:
 E= -2287.65346761637     Delta-E=       -0.000106139209 Rises=F Damp=F
 DIIS: error= 7.10D-04 at cycle   1 NSaved=   1.
 NSaved= 1 IEnMin= 1 EnMin= -2287.65346761637     IErMin= 1 ErrMin= 7.10D-04
 ErrMax= 7.10D-04 EMaxC= 1.00D-01 BMatC= 6.89D-05 BMatP= 6.89D-05
 IDIUse=3 WtCom= 9.93D-01 WtEn= 7.10D-03
 Coeff-Com:  0.100D+01
 Coeff-En:   0.100D+01
 Coeff:      0.100D+01
 Gap=     0.073 Goal=   None    Shift=    0.000
 RMSDP=7.52D-06 MaxDP=5.78D-04 DE=-1.06D-04 OVMax= 7.77D-04

 Cycle   9  Pass 1  IDiag  1:
 RMSU=  2.28D-04    CP:  1.00D+00
 E= -2287.65351261744     Delta-E=       -0.000045001067 Rises=F Damp=F
 DIIS: error= 3.41D-05 at cycle   2 NSaved=   2.
 NSaved= 2 IEnMin= 2 EnMin= -2287.65351261744     IErMin= 2 ErrMin= 3.41D-05
 ErrMax= 3.41D-05 EMaxC= 1.00D-01 BMatC= 3.14D-06 BMatP= 6.89D-05
 IDIUse=1 WtCom= 1.00D+00 WtEn= 0.00D+00
 Coeff-Com:  0.640D-01 0.936D+00
 Coeff:      0.640D-01 0.936D+00
 Gap=     0.073 Goal=   None    Shift=    0.000
 RMSDP=5.97D-06 MaxDP=3.48D-04 DE=-4.50D-05 OVMax= 1.07D-03

 Cycle  10  Pass 1  IDiag  1:
 RMSU=  3.62D-06    CP:  1.00D+00  1.01D+00
 E= -2287.65350930536     Delta-E=        0.000003312078 Rises=F Damp=F
 DIIS: error= 5.60D-05 at cycle   3 NSaved=   3.
 NSaved= 3 IEnMin= 2 EnMin= -2287.65351261744     IErMin= 2 ErrMin= 3.41D-05
 ErrMax= 5.60D-05 EMaxC= 1.00D-01 BMatC= 6.31D-06 BMatP= 3.14D-06
 IDIUse=1 WtCom= 1.00D+00 WtEn= 0.00D+00
 Coeff-Com: -0.124D-02 0.588D+00 0.413D+00
 Coeff:     -0.124D-02 0.588D+00 0.413D+00
 Gap=     0.073 Goal=   None    Shift=    0.000
 RMSDP=3.28D-06 MaxDP=3.16D-04 DE= 3.31D-06 OVMax= 1.21D-03

 Cycle  11  Pass 1  IDiag  1:
 RMSU=  9.46D-07    CP:  1.00D+00  1.01D+00  4.17D-01
 E= -2287.65351524741     Delta-E=       -0.000005942049 Rises=F Damp=F
 DIIS: error= 2.90D-05 at cycle   4 NSaved=   4.
 NSaved= 4 IEnMin= 4 EnMin= -2287.65351524741     IErMin= 4 ErrMin= 2.90D-05
 ErrMax= 2.90D-05 EMaxC= 1.00D-01 BMatC= 4.99D-07 BMatP= 3.14D-06
 IDIUse=1 WtCom= 1.00D+00 WtEn= 0.00D+00
 Coeff-Com: -0.294D-02 0.398D+00 0.301D+00 0.304D+00
 Coeff:     -0.294D-02 0.398D+00 0.301D+00 0.304D+00
 Gap=     0.073 Goal=   None    Shift=    0.000
 RMSDP=9.56D-07 MaxDP=8.44D-05 DE=-5.94D-06 OVMax= 5.52D-04

 Cycle  12  Pass 1  IDiag  1:
 RMSU=  3.08D-07    CP:  1.00D+00  1.01D+00  4.48D-01  3.76D-01
 E= -2287.65351580143     Delta-E=       -0.000000554021 Rises=F Damp=F
 DIIS: error= 5.27D-06 at cycle   5 NSaved=   5.
 NSaved= 5 IEnMin= 5 EnMin= -2287.65351580143     IErMin= 5 ErrMin= 5.27D-06
 ErrMax= 5.27D-06 EMaxC= 1.00D-01 BMatC= 1.60D-08 BMatP= 4.99D-07
 IDIUse=1 WtCom= 1.00D+00 WtEn= 0.00D+00
 Coeff-Com: -0.190D-02 0.235D+00 0.179D+00 0.205D+00 0.383D+00
 Coeff:     -0.190D-02 0.235D+00 0.179D+00 0.205D+00 0.383D+00
 Gap=     0.073 Goal=   None    Shift=    0.000
 RMSDP=2.00D-07 MaxDP=1.40D-05 DE=-5.54D-07 OVMax= 1.05D-04

 Cycle  13  Pass 1  IDiag  1:
 RMSU=  1.02D-07    CP:  1.00D+00  1.01D+00  4.43D-01  4.29D-01  7.35D-01
 E= -2287.65351581945     Delta-E=       -0.000000018019 Rises=F Damp=F
 DIIS: error= 1.11D-06 at cycle   6 NSaved=   6.
 NSaved= 6 IEnMin= 6 EnMin= -2287.65351581945     IErMin= 6 ErrMin= 1.11D-06
 ErrMax= 1.11D-06 EMaxC= 1.00D-01 BMatC= 1.14D-09 BMatP= 1.60D-08
 IDIUse=1 WtCom= 1.00D+00 WtEn= 0.00D+00
 Coeff-Com: -0.731D-03 0.859D-01 0.657D-01 0.813D-01 0.237D+00 0.530D+00
 Coeff:     -0.731D-03 0.859D-01 0.657D-01 0.813D-01 0.237D+00 0.530D+00
 Gap=     0.073 Goal=   None    Shift=    0.000
 RMSDP=5.46D-08 MaxDP=5.69D-06 DE=-1.80D-08 OVMax= 2.39D-05

 Cycle  14  Pass 1  IDiag  1:
 RMSU=  2.85D-08    CP:  1.00D+00  1.01D+00  4.45D-01  4.20D-01  7.76D-01
                    CP:  8.07D-01
 E= -2287.65351582042     Delta-E=       -0.000000000972 Rises=F Damp=F
 DIIS: error= 6.07D-07 at cycle   7 NSaved=   7.
 NSaved= 7 IEnMin= 7 EnMin= -2287.65351582042     IErMin= 7 ErrMin= 6.07D-07
 ErrMax= 6.07D-07 EMaxC= 1.00D-01 BMatC= 2.42D-10 BMatP= 1.14D-09
 IDIUse=1 WtCom= 1.00D+00 WtEn= 0.00D+00
 Coeff-Com: -0.215D-03 0.237D-01 0.181D-01 0.248D-01 0.103D+00 0.358D+00
 Coeff-Com:  0.472D+00
 Coeff:     -0.215D-03 0.237D-01 0.181D-01 0.248D-01 0.103D+00 0.358D+00
 Coeff:      0.472D+00
 Gap=     0.073 Goal=   None    Shift=    0.000
 RMSDP=2.50D-08 MaxDP=2.35D-06 DE=-9.72D-10 OVMax= 9.06D-06

 Cycle  15  Pass 1  IDiag  1:
 RMSU=  1.26D-08    CP:  1.00D+00  1.01D+00  4.44D-01  4.26D-01  7.79D-01
                    CP:  8.16D-01  6.10D-01
 E= -2287.65351582060     Delta-E=       -0.000000000180 Rises=F Damp=F
 DIIS: error= 4.27D-07 at cycle   8 NSaved=   8.
 NSaved= 8 IEnMin= 8 EnMin= -2287.65351582060     IErMin= 8 ErrMin= 4.27D-07
 ErrMax= 4.27D-07 EMaxC= 1.00D-01 BMatC= 6.27D-11 BMatP= 2.42D-10
 IDIUse=1 WtCom= 1.00D+00 WtEn= 0.00D+00
 Coeff-Com: -0.898D-05-0.332D-03-0.269D-03 0.181D-02 0.292D-01 0.158D+00
 Coeff-Com:  0.360D+00 0.451D+00
 Coeff:     -0.898D-05-0.332D-03-0.269D-03 0.181D-02 0.292D-01 0.158D+00
 Coeff:      0.360D+00 0.451D+00
 Gap=     0.073 Goal=   None    Shift=    0.000
 RMSDP=1.14D-08 MaxDP=7.64D-07 DE=-1.80D-10 OVMax= 3.12D-06

 Cycle  16  Pass 1  IDiag  1:
 RMSU=  3.83D-09    CP:  1.00D+00  1.01D+00  4.44D-01  4.24D-01  7.82D-01
                    CP:  8.34D-01  6.65D-01  4.88D-01
 E= -2287.65351582066     Delta-E=       -0.000000000063 Rises=F Damp=F
 DIIS: error= 7.23D-08 at cycle   9 NSaved=   9.
 NSaved= 9 IEnMin= 9 EnMin= -2287.65351582066     IErMin= 9 ErrMin= 7.23D-08
 ErrMax= 7.23D-08 EMaxC= 1.00D-01 BMatC= 2.28D-12 BMatP= 6.27D-11
 IDIUse=1 WtCom= 1.00D+00 WtEn= 0.00D+00
 Coeff-Com:  0.189D-04-0.279D-02-0.214D-02-0.173D-02 0.450D-02 0.453D-01
 Coeff-Com:  0.140D+00 0.238D+00 0.579D+00
 Coeff:      0.189D-04-0.279D-02-0.214D-02-0.173D-02 0.450D-02 0.453D-01
 Coeff:      0.140D+00 0.238D+00 0.579D+00
 Gap=     0.073 Goal=   None    Shift=    0.000
 RMSDP=2.08D-09 MaxDP=1.75D-07 DE=-6.28D-11 OVMax= 4.37D-07

 SCF Done:  E(RB3LYP) =  -2287.65351582     A.U. after   16 cycles
             Convg  =    0.2083D-08             -V/T =  2.0030
 KE= 2.280797917012D+03 PE=-1.704825067817D+04 EE= 6.625585451285D+03
 Leave Link  502 at Fri Feb  1 22:06:19 2013, MaxMem= 1073741824 cpu:    7439.5
 (Enter /apps/gaussian/g09_c01/g09/l801.exe)
 ExpMin= 7.78D-02 ExpMax= 1.61D+04 ExpMxC= 2.43D+03 IAcc=3 IRadAn=         5 AccDes= 0.00D+00
 HarFok:  IExCor=  205 AccDes= 0.00D+00 IRadAn=         5 IDoV=-2
 ScaDFX=  1.000000  1.000000  1.000000  1.000000
 Largest valence mixing into a core orbital is  6.42D-05
 Largest core mixing into a valence orbital is  1.56D-05
 Range of M.O.s used for correlation:    55   968
 NBasis=   968 NAE=   173 NBE=   173 NFC=    54 NFV=     0
 NROrb=    914 NOA=   119 NOB=   119 NVA=   795 NVB=   795

 **** Warning!!: The largest alpha MO coefficient is  0.11377077D+02


 **** Warning!!: The smallest alpha delta epsilon is  0.72683776D-01

 Leave Link  801 at Fri Feb  1 22:06:20 2013, MaxMem= 1073741824 cpu:       6.8
 (Enter /apps/gaussian/g09_c01/g09/l914.exe)
 RHF ground state
 MDV=  1073741824 DFT=T DoStab=F Mixed=T DoRPA=T DoScal=F NonHer=T
 Would need an additional335630700000 words for in-memory AO integral storage.
 Making orbital integer symmetry assigments:
   100 initial guesses have been made.
 Convergence on wavefunction:    0.001000000000000
 Davidson Disk Diagonalization:  ConvIn= 1.00D-03 SkipCon=T Conv= 1.00D-03.
 Max sub-space:   400 roots to seek:   100 dimension of matrix: 189210
 Iteration     1 Dimension   100 NMult   100
 CISAX:  IP=  8 NPass=   2 NMax=    50.
 CISAX will form    50 AO SS matrices at one time.
 NMat=    50 NSing=    50.
 FoFCou: FMM=T IPFlag=           0 FMFlag=      100000 FMFlg1=        2001
         NFxFlg=           0 DoJE=F BraDBF=F KetDBF=F FulRan=T
         Omega=  0.000000  0.000000  1.000000  0.000000  0.000000 ICntrl=       0 IOpCl=  0
         NMat0=   50 NMatS0=   50 NMatT0=    0 NMatD0=   50 NMtDS0=    0 NMtDT0=    0
         I1Cent=           0 NGrid=           0.
 Symmetry not used in FoFCou.
 FMM levels:  10  Number of levels for PrismC:   9
 NMat=    50 NSing=    50.
 CISAX:  IP=  8 NPass=   2 NMax=    50.
 CISAX will form    50 AO SS matrices at one time.
 NMat=    50 NSing=    50.
 NMat=    50 NSing=    50.
 New state      3 was old state      4
 New state      4 was old state      5
 New state      5 was old state      3
 New state      6 was old state      9
 New state      8 was old state     10
 New state      9 was old state      6
 New state     10 was old state     11
 New state     11 was old state     12
 New state     12 was old state     14
 New state     13 was old state     15
 New state     14 was old state     16
 New state     15 was old state      8
 New state     16 was old state     19
 New state     17 was old state     18
 New state     18 was old state     24
 New state     19 was old state     25
 New state     20 was old state     13
 New state     21 was old state     17
 New state     23 was old state     20
 New state     24 was old state     21
 New state     25 was old state     23
 Excitation Energies [eV] at current iteration:
 Root      1 :     2.083654674478135
 Root      2 :     2.821794366358179
 Root      3 :     3.234397613928869
 Root      4 :     3.244223007076719
 Root      5 :     3.520006607959777
 Root      6 :     3.633475010284319
 Root      7 :     3.654125625326816
 Root      8 :     3.814828879874595
 Root      9 :     3.918772203070426
 Root     10 :     4.255983253311543
 Root     11 :     4.273142260685301
 Root     12 :     4.408314209124452
 Root     13 :     4.435252882024292
 Root     14 :     4.560214778004935
 Root     15 :     4.616838482812617
 Root     16 :     4.623834631919168
 Root     17 :     4.643382469017673
 Root     18 :     4.749133002600667
 Root     19 :     4.779134368058080
 Root     20 :     4.915331583150210
 Root     21 :     4.918587828837657
 Root     22 :     4.944713606790690
 Root     23 :     4.976250084395679
 Root     24 :     5.121075317189845
 Root     25 :     5.193485903575834
 Iteration     2 Dimension   150 NMult   150
 CISAX:  IP=  8 NPass=   1 NMax=    50.
 CISAX will form    50 AO SS matrices at one time.
 NMat=    50 NSing=    50.
 CISAX:  IP=  8 NPass=   1 NMax=    50.
 CISAX will form    50 AO SS matrices at one time.
 NMat=    50 NSing=    50.
 Root      1 not converged, maximum delta is    0.052158674952932
 Root      2 not converged, maximum delta is    0.137213388710431
 Root      3 not converged, maximum delta is    0.084560423277046
 Root      4 not converged, maximum delta is    0.047924768872054
 Root      5 not converged, maximum delta is    0.099692084668920
 Root      6 not converged, maximum delta is    0.059743685501462
 Root      7 not converged, maximum delta is    0.065173483962014
 New state      8 was old state      9
 Root      8 not converged, maximum delta is    0.236952796494037
 New state      9 was old state      8
 Root      9 not converged, maximum delta is    0.056220661622430
 Root     10 not converged, maximum delta is    0.153281737951190
 Root     11 not converged, maximum delta is    0.053107579711260
 New state     12 was old state     15
 Root     12 not converged, maximum delta is    0.091015845751056
 New state     13 was old state     12
 Root     13 not converged, maximum delta is    0.032418943573892
 New state     14 was old state     13
 Root     14 not converged, maximum delta is    0.032790837587000
 New state     15 was old state     14
 Root     15 not converged, maximum delta is    0.115679979574135
 New state     16 was old state     17
 Root     16 not converged, maximum delta is    0.106953998881351
 New state     17 was old state     16
 Root     17 not converged, maximum delta is    0.095784790995911
 New state     18 was old state     20
 Root     18 not converged, maximum delta is    0.174887038756134
 Root     19 not converged, maximum delta is    0.434258298629954
 New state     20 was old state     18
 Root     20 not converged, maximum delta is    0.057899306884504
 Root     21 not converged, maximum delta is    0.349858231232872
 New state     22 was old state     23
 Root     22 not converged, maximum delta is    0.095603447012992
 New state     23 was old state     24
 Root     23 not converged, maximum delta is    0.147065914433763
 New state     24 was old state     25
 Root     24 not converged, maximum delta is    0.311494113830166
 New state     25 was old state     22
 Root     25 not converged, maximum delta is    0.236120902068854
 Excitation Energies [eV] at current iteration:
 Root      1 :     1.764384419850195   Change is   -0.319270254627940
 Root      2 :     2.761546734724106   Change is   -0.060247631634073
 Root      3 :     3.193144341420990   Change is   -0.041253272507879
 Root      4 :     3.201065029641166   Change is   -0.043157977435553
 Root      5 :     3.241657298773075   Change is   -0.278349309186702
 Root      6 :     3.616894891144010   Change is   -0.016580119140309
 Root      7 :     3.632704812644139   Change is   -0.021420812682677
 Root      8 :     3.698728120542142   Change is   -0.220044082528283
 Root      9 :     3.744294273164205   Change is   -0.070534606710390
 Root     10 :     4.125231198370026   Change is   -0.130752054941518
 Root     11 :     4.236042060202069   Change is   -0.037100200483231
 Root     12 :     4.241838100748788   Change is   -0.375000382063829
 Root     13 :     4.390237887380268   Change is   -0.018076321744184
 Root     14 :     4.417862896292768   Change is   -0.017389985731523
 Root     15 :     4.505299603745142   Change is   -0.054915174259793
 Root     16 :     4.583700418076368   Change is   -0.059682050941306
 Root     17 :     4.589904104443295   Change is   -0.033930527475873
 Root     18 :     4.612349920982985   Change is   -0.302981662167225
 Root     19 :     4.630974002243933   Change is   -0.148160365814147
 Root     20 :     4.711570265924476   Change is   -0.037562736676190
 Root     21 :     4.776128721611585   Change is   -0.142459107226073
 Root     22 :     4.887738891264258   Change is   -0.088511193131422
 Root     23 :     4.904883450554426   Change is   -0.216191866635419
 Root     24 :     4.915309444554333   Change is   -0.278176459021500
 Root     25 :     4.944343964564530   Change is   -0.000369642226160
 Iteration     3 Dimension   200 NMult   200
 CISAX:  IP=  8 NPass=   1 NMax=    50.
 CISAX will form    50 AO SS matrices at one time.
 NMat=    50 NSing=    50.
 CISAX:  IP=  8 NPass=   1 NMax=    50.
 CISAX will form    50 AO SS matrices at one time.
 NMat=    50 NSing=    50.
 Root      1 not converged, maximum delta is    0.005174232279639
 Root      2 not converged, maximum delta is    0.006004235733258
 Root      3 not converged, maximum delta is    0.015070184638321
 Root      4 not converged, maximum delta is    0.017344061905150
 Root      5 not converged, maximum delta is    0.006385518925620
 Root      6 not converged, maximum delta is    0.012023370873121
 Root      7 not converged, maximum delta is    0.010389964594777
 Root      8 not converged, maximum delta is    0.013228033704579
 Root      9 not converged, maximum delta is    0.010164747633317
 Root     10 not converged, maximum delta is    0.005614644372396
 New state     11 was old state     12
 Root     11 not converged, maximum delta is    0.010694365148994
 New state     12 was old state     11
 Root     12 not converged, maximum delta is    0.008631803979565
 Root     13 not converged, maximum delta is    0.007301225359647
 Root     14 not converged, maximum delta is    0.002561530282219
 Root     15 not converged, maximum delta is    0.014145288568066
 Root     16 not converged, maximum delta is    0.026768169623436
 Root     17 not converged, maximum delta is    0.044740042837393
 Root     18 not converged, maximum delta is    0.012231877723988
 Root     19 not converged, maximum delta is    0.062329748773446
 Root     20 not converged, maximum delta is    0.004336087774716
 Root     21 not converged, maximum delta is    0.023789850168735
 Root     22 not converged, maximum delta is    0.015357864108423
 Root     23 not converged, maximum delta is    0.015415426879137
 Root     24 not converged, maximum delta is    0.064652293893441
 Root     25 not converged, maximum delta is    0.058669505108308
 Excitation Energies [eV] at current iteration:
 Root      1 :     1.753459992266886   Change is   -0.010924427583309
 Root      2 :     2.758688834803389   Change is   -0.002857899920716
 Root      3 :     3.189632423711208   Change is   -0.003511917709781
 Root      4 :     3.197690652353558   Change is   -0.003374377287607
 Root      5 :     3.235138011551273   Change is   -0.006519287221802
 Root      6 :     3.616250934050510   Change is   -0.000643957093500
 Root      7 :     3.631552046062582   Change is   -0.001152766581557
 Root      8 :     3.687596362157131   Change is   -0.011131758385012
 Root      9 :     3.738496548018805   Change is   -0.005797725145401
 Root     10 :     4.120532481999474   Change is   -0.004698716370551
 Root     11 :     4.220167853983199   Change is   -0.021670246765589
 Root     12 :     4.234620126459831   Change is   -0.001421933742239
 Root     13 :     4.389548603323190   Change is   -0.000689284057078
 Root     14 :     4.417385576659405   Change is   -0.000477319633364
 Root     15 :     4.500214343204212   Change is   -0.005085260540930
 Root     16 :     4.578900393843714   Change is   -0.004800024232653
 Root     17 :     4.588128210735410   Change is   -0.001775893707885
 Root     18 :     4.601337677221872   Change is   -0.011012243761112
 Root     19 :     4.617394192366271   Change is   -0.013579809877662
 Root     20 :     4.710298611894165   Change is   -0.001271654030312
 Root     21 :     4.771924299660621   Change is   -0.004204421950963
 Root     22 :     4.879246839742131   Change is   -0.008492051522127
 Root     23 :     4.886761574284312   Change is   -0.018121876270114
 Root     24 :     4.906546020826499   Change is   -0.008763423727834
 Root     25 :     4.942965104955893   Change is   -0.001378859608638
 Iteration     4 Dimension   250 NMult   250
 CISAX:  IP=  8 NPass=   1 NMax=    50.
 CISAX will form    50 AO SS matrices at one time.
 NMat=    50 NSing=    50.
 CISAX:  IP=  8 NPass=   1 NMax=    50.
 CISAX will form    50 AO SS matrices at one time.
 NMat=    50 NSing=    50.
 Root      1 has converged.
 Root      2 has converged.
 Root      3 has converged.
 Root      4 has converged.
 Root      5 has converged.
 Root      6 not converged, maximum delta is    0.001083317370572
 Root      7 has converged.
 Root      8 not converged, maximum delta is    0.001200614636043
 Root      9 not converged, maximum delta is    0.001347165124193
 Root     10 has converged.
 Root     11 not converged, maximum delta is    0.003601061935483
 Root     12 has converged.
 Root     13 has converged.
 Root     14 has converged.
 Root     15 has converged.
 Root     16 not converged, maximum delta is    0.001186829935356
 Root     17 not converged, maximum delta is    0.008666608950759
 Root     18 not converged, maximum delta is    0.001082592195792
 Root     19 not converged, maximum delta is    0.011825901013252
 Root     20 has converged.
 Root     21 not converged, maximum delta is    0.003943157282404
 Root     22 not converged, maximum delta is    0.003514984999568
 Root     23 not converged, maximum delta is    0.002055254344763
 Root     24 not converged, maximum delta is    0.002385882217289
 Root     25 not converged, maximum delta is    0.002409652640152
 Excitation Energies [eV] at current iteration:
 Root      1 :     1.753130380289714   Change is   -0.000329611977172
 Root      2 :     2.758580595734138   Change is   -0.000108239069251
 Root      3 :     3.189428176854128   Change is   -0.000204246857081
 Root      4 :     3.197495427600158   Change is   -0.000195224753401
 Root      5 :     3.234869566999448   Change is   -0.000268444551825
 Root      6 :     3.616211472211414   Change is   -0.000039461839096
 Root      7 :     3.631478559631902   Change is   -0.000073486430680
 Root      8 :     3.686721205238989   Change is   -0.000875156918141
 Root      9 :     3.738095263317666   Change is   -0.000401284701139
 Root     10 :     4.120254253649512   Change is   -0.000278228349963
 Root     11 :     4.217417719268974   Change is   -0.002750134714224
 Root     12 :     4.234467236169431   Change is   -0.000152890290400
 Root     13 :     4.389509282169729   Change is   -0.000039321153461
 Root     14 :     4.417349243517990   Change is   -0.000036333141415
 Root     15 :     4.499929937180441   Change is   -0.000284406023772
 Root     16 :     4.578595854663272   Change is   -0.000304539180442
 Root     17 :     4.587903686384994   Change is   -0.000224524350416
 Root     18 :     4.600716101751325   Change is   -0.000621575470548
 Root     19 :     4.615841644935395   Change is   -0.001552547430877
 Root     20 :     4.710233245435022   Change is   -0.000065366459143
 Root     21 :     4.771425889666908   Change is   -0.000498409993713
 Root     22 :     4.878570856157560   Change is   -0.000675983584571
 Root     23 :     4.885888781116469   Change is   -0.000872793167843
 Root     24 :     4.906086574021196   Change is   -0.000459446805303
 Root     25 :     4.942909903822663   Change is   -0.000055201133230
 Iteration     5 Dimension   276 NMult   276
 CISAX:  IP=  8 NPass=   1 NMax=    26.
 CISAX will form    26 AO SS matrices at one time.
 NMat=    26 NSing=    26.
 CISAX:  IP=  8 NPass=   1 NMax=    26.
 CISAX will form    26 AO SS matrices at one time.
 NMat=    26 NSing=    26.
 Root      1 has converged.
 Root      2 has converged.
 Root      3 has converged.
 Root      4 has converged.
 Root      5 has converged.
 Root      6 has converged.
 Root      7 has converged.
 Root      8 has converged.
 Root      9 has converged.
 Root     10 has converged.
 Root     11 has converged.
 Root     12 has converged.
 Root     13 has converged.
 Root     14 has converged.
 Root     15 has converged.
 Root     16 has converged.
 Root     17 has converged.
 Root     18 has converged.
 Root     19 has converged.
 Root     20 has converged.
 Root     21 has converged.
 Root     22 has converged.
 Root     23 has converged.
 Root     24 has converged.
 Root     25 has converged.
 Excitation Energies [eV] at current iteration:
 Root      1 :     1.753122943292883   Change is   -0.000007436996831
 Root      2 :     2.758579208095733   Change is   -0.000001387638405
 Root      3 :     3.189419540324646   Change is   -0.000008636529482
 Root      4 :     3.197490942081449   Change is   -0.000004485518709
 Root      5 :     3.234864294326130   Change is   -0.000005272673318
 Root      6 :     3.616209904802403   Change is   -0.000001567409011
 Root      7 :     3.631477018720551   Change is   -0.000001540911351
 Root      8 :     3.686691426224614   Change is   -0.000029779014376
 Root      9 :     3.738082428280397   Change is   -0.000012835037269
 Root     10 :     4.120247969178042   Change is   -0.000006284471470
 Root     11 :     4.217269510407453   Change is   -0.000148208861522
 Root     12 :     4.234464304496709   Change is   -0.000002931672722
 Root     13 :     4.389508268179720   Change is   -0.000001013990009
 Root     14 :     4.417348821072101   Change is   -0.000000422445889
 Root     15 :     4.499913189992859   Change is   -0.000016747187582
 Root     16 :     4.578582141811283   Change is   -0.000013712851989
 Root     17 :     4.587890232987306   Change is   -0.000013453397689
 Root     18 :     4.600688626136453   Change is   -0.000027475614872
 Root     19 :     4.615762183349206   Change is   -0.000079461586188
 Root     20 :     4.710232224637446   Change is   -0.000001020797576
 Root     21 :     4.771398929879971   Change is   -0.000026959786937
 Root     22 :     4.878525176202119   Change is   -0.000045679955440
 Root     23 :     4.885829740454632   Change is   -0.000059040661836
 Root     24 :     4.906044849435835   Change is   -0.000041724585361
 Root     25 :     4.942905163837022   Change is   -0.000004739985641
 Convergence achieved on expansion vectors.
 ***********************************************************************
 Excited states from <AA,BB:AA,BB> singles matrix:
 ***********************************************************************
 
 1PDM for each excited state written to RWF  633
 Ground to excited state transition densities written to RWF  633
 Ground to excited state transition electric dipole moments (Au):
       state          X           Y           Z        Dip. S.      Osc.
         1        -0.1282     -0.7450      1.8263      3.9068      0.1678
         2         0.0000      0.0010     -0.0023      0.0000      0.0000
         3        -0.3338     -0.1613      0.8214      0.8122      0.0635
         4        -0.5637      0.5098     -0.2765      0.6541      0.0512
         5        -0.0017      0.0022     -0.0025      0.0000      0.0000
         6         0.0049     -0.0640      0.3272      0.1112      0.0099
         7        -0.0001     -0.0003      0.0017      0.0000      0.0000
         8         0.2024      0.6522     -1.5627      2.9084      0.2627
         9         0.0018      0.0052     -0.0127      0.0002      0.0000
        10         0.0191     -0.0430     -0.0448      0.0042      0.0004
        11        -3.9289      2.3548      0.6483     21.4018      2.2113
        12         0.0163     -0.0099     -0.0015      0.0004      0.0000
        13         0.0696      0.0605     -0.0796      0.0148      0.0016
        14        -0.0015     -0.0009      0.0009      0.0000      0.0000
        15        -0.1214     -0.1316      0.4536      0.2378      0.0262
        16         0.0003     -0.0047      0.0113      0.0002      0.0000
        17         0.0009     -0.0013      0.0011      0.0000      0.0000
        18        -0.0680     -0.2695      0.7790      0.6841      0.0771
        19         0.0037     -0.0030      0.0017      0.0000      0.0000
        20        -0.2038      0.0736      0.0096      0.0471      0.0054
        21         0.0025     -0.0016     -0.0003      0.0000      0.0000
        22        -0.0031      0.0003      0.0038      0.0000      0.0000
        23        -0.0629     -0.1891      0.4740      0.2644      0.0317
        24        -0.0003     -0.0049      0.0101      0.0001      0.0000
        25        -0.0002      0.0008     -0.0013      0.0000      0.0000
 Ground to excited state transition velocity dipole moments (Au):
       state          X           Y           Z        Dip. S.      Osc.
         1         0.0092      0.0547     -0.1368      0.0218      0.2256
         2         0.0000     -0.0001      0.0002      0.0000      0.0000
         3         0.0345      0.0212     -0.0933      0.0103      0.0588
         4         0.0572     -0.0543      0.0329      0.0073      0.0414
         5         0.0002     -0.0002      0.0003      0.0000      0.0000
         6        -0.0020      0.0076     -0.0420      0.0018      0.0092
         7         0.0000      0.0000     -0.0002      0.0000      0.0000
         8        -0.0257     -0.0847      0.2005      0.0480      0.2364
         9        -0.0002     -0.0007      0.0016      0.0000      0.0000
        10        -0.0026      0.0038      0.0128      0.0002      0.0008
        11         0.5886     -0.3527     -0.0969      0.4803      2.0661
        12        -0.0025      0.0015      0.0002      0.0000      0.0000
        13        -0.0099     -0.0101      0.0136      0.0004      0.0016
        14         0.0002      0.0002     -0.0002      0.0000      0.0000
        15         0.0199      0.0229     -0.0759      0.0067      0.0269
        16         0.0000      0.0008     -0.0020      0.0000      0.0000
        17        -0.0001      0.0002     -0.0002      0.0000      0.0000
        18         0.0117      0.0491     -0.1418      0.0227      0.0894
        19        -0.0006      0.0005     -0.0003      0.0000      0.0000
        20         0.0335     -0.0097     -0.0003      0.0012      0.0047
        21        -0.0004      0.0003      0.0000      0.0000      0.0000
        22         0.0005     -0.0001     -0.0006      0.0000      0.0000
        23         0.0096      0.0318     -0.0798      0.0075      0.0278
        24         0.0000      0.0008     -0.0017      0.0000      0.0000
        25         0.0000     -0.0001      0.0002      0.0000      0.0000
 Ground to excited state transition magnetic dipole moments (Au):
       state          X           Y           Z
         1        -2.3532      2.2050      0.7238
         2        -0.2548     -0.3964     -0.1432
         3        -1.3492      1.9502     -0.0563
         4         1.2149      0.4089     -1.4405
         5        -0.8032     -1.2211     -0.4723
         6        -0.5771      0.6018      0.1356
         7        -0.1619     -0.0636      0.2227
         8         3.5210     -3.4243     -0.9964
         9        -0.0715     -0.1089      0.0608
        10         0.0797     -0.2345      0.0863
        11         4.5031     10.7376    -11.7261
        12         0.0188      0.0622      0.0565
        13         0.3066     -0.3605     -0.0498
        14        -0.0927      0.0804     -0.2944
        15        -1.1873      1.4567      0.1282
        16        -0.1255     -0.1381      0.0031
        17        -0.0752      0.1002     -0.1881
        18        -2.3226      2.3161      0.6099
        19         0.0159      0.0305      0.1291
        20         0.1504      0.5307     -0.5102
        21         0.0016      0.0156      0.0179
        22         0.0327      0.0721      0.0337
        23        -1.3528      1.3810      0.3842
        24        -1.0027     -1.4164     -0.5618
        25         0.2133      0.3060      0.1123
 Ground to excited state transition velocity quadrupole moments (Au):
       state          XX          YY          ZZ          XY          XZ          YZ
         1         0.2760      1.1913     -4.3124      0.9241     -1.9175     -0.6285
         2        -0.0106      0.0976     -0.0790     -0.0825      0.2437     -0.1259
         3         1.0406      0.4614     -2.9397      0.6951     -0.8614     -0.6815
         4         1.7248     -1.1831      1.0357     -0.1950      1.3956     -0.4973
         5        -0.0062      0.1909     -0.1761     -0.1669      0.4768     -0.2430
         6        -0.0598      0.1671     -1.3283      0.0922     -0.6652     -0.3379
         7        -0.3085     -0.1046      0.8054      0.2327      0.0263     -0.1917
         8        -0.7806     -1.8443      6.3323     -1.5515      2.6173      0.8442
         9         0.8936     -0.1108     -1.4932     -0.6376     -0.1147      0.7458
        10        -0.0751      0.0842      0.4009      0.0252      0.1515      0.2003
        11        17.7450     -7.6820     -3.0559      1.0932      7.8155     -6.6136
        12         0.1091      0.2306      0.4540     -0.1357      0.0429     -0.1235
        13        -0.2969     -0.2234      0.4247     -0.2627      0.0471     -0.0080
        14         0.1512     -0.1240     -0.1364     -0.0820     -0.0371      0.1849
        15         0.6018      0.4990     -2.3938      0.5613     -0.8294     -0.4641
        16        -0.0565      0.0807     -0.0607      0.0024      0.0912     -0.1092
        17         0.6532     -0.0536     -0.6143     -0.4200     -0.0166      0.3785
        18         0.3465      1.0699     -4.4646      0.8708     -1.9508     -0.7749
        19         1.7611      0.2616     -2.1734     -1.2809     -0.1142      0.9770
        20         1.0079     -0.2115     -0.0083      0.2179      0.5232     -0.1565
        21         0.8055      0.0389     -1.1338     -0.5632     -0.1192      0.5361
        22         0.0345     -0.0467     -0.3785     -0.0445      0.0562      0.1293
        23         0.2907      0.6869     -2.5095      0.5885     -1.0643     -0.3633
        24         0.0123      0.3193     -0.3467     -0.2507      0.6773     -0.3645
        25         0.0308     -0.0900      0.0389      0.0542     -0.2190      0.1350
 <0|del|b> * <b|rxdel|0> + <0|del|b> * <b|delr+rdel|0>
 Rotatory Strengths (R) in cgs (10**-40 erg-esu-cm/Gauss)
       state          XX          YY          ZZ    R(velocity)
         1        -0.0857      0.4530     -0.4731     -0.0352
         2         0.0333     -0.0520      0.0466      0.0093
         3        -0.0028     -0.0591      0.0676      0.0019
         4        -0.4417      0.4391     -0.0341     -0.0122
         5         0.6789     -0.8166      0.2262      0.0295
         6         0.2093      0.0446     -0.0052      0.0829
         7        -0.2771      0.0031     -0.0040     -0.0927
         8         2.1020     -2.1116     -1.0511     -0.3536
         9        -2.4565      2.5793      0.8609      0.3279
        10        -0.0870      0.0999      0.0092      0.0074
        11        -0.0101      0.7735     -0.8968     -0.0445
        12         0.0336      0.6678     -0.4389      0.0875
        13        -0.2498     -0.1591      0.1150     -0.0979
        14         0.1681      0.1161     -0.1163      0.0560
        15         0.1565     -0.0775     -0.0698      0.0031
        16        -0.4215      0.0171     -0.0801     -0.1615
        17         0.3287     -0.1947      0.1721      0.1020
        18        -0.9795      1.6386     -0.3452      0.1046
        19         0.9479     -2.2219      1.1189     -0.0517
        20         0.0097     -0.0198      0.0311      0.0070
        21         0.0220     -0.4145      0.4093      0.0056
        22         0.0113      0.0727     -0.1196     -0.0119
        23         0.0412     -0.4417      1.0355      0.2117
        24        -0.6870      0.9517     -1.2315     -0.3223
        25        -0.0696      0.0510     -0.0156     -0.0114
 1/2[<0|r|b>*<b|rxdel|0> + (<0|rxdel|b>*<b|r|0>)*]
 Rotatory Strengths (R) in cgs (10**-40 erg-esu-cm/Gauss)
       state          XX          YY          ZZ     R(length)
         1      -213.4018   1161.6530   -934.7382      4.5043
         2        -0.0033      0.2752     -0.2285      0.0145
         3      -318.5070    222.5069     32.7233    -21.0922
         4       484.2957   -147.4027   -281.6618     18.4104
         5        -0.9768      1.8647     -0.8362      0.0172
         6         2.0163     27.2539    -31.3754     -0.7017
         7        -0.0114     -0.0155     -0.2727     -0.0999
         8      -503.8981   1579.2492  -1101.1104     -8.5864
         9         0.0909      0.4012      0.5461      0.3461
        10        -1.0746     -7.1222      2.7348     -1.8207
        11     12511.5050 -17880.3305   5376.0503      2.4083
        12        -0.2168      0.4333      0.0591      0.0919
        13       -15.0851     15.4233     -2.8069     -0.8229
        14        -0.0985      0.0508      0.1901      0.0474
        15      -101.9671    135.5868    -41.1111     -2.4971
        16         0.0226     -0.4596     -0.0248     -0.1540
        17         0.0496      0.0931      0.1514      0.0980
        18      -111.6562    441.3620   -335.9929     -2.0957
        19        -0.0422      0.0646     -0.1525     -0.0434
        20        21.6792    -27.6290      3.4606     -0.8297
        21        -0.0030      0.0175      0.0040      0.0062
        22         0.0718     -0.0154     -0.0894     -0.0110
        23       -60.1470    184.6849   -128.7916     -1.4179
        24        -0.1868     -4.8653      4.0047     -0.3491
        25         0.0359     -0.1719      0.0995     -0.0122
  1/2[<0|del|b>*<b|r|0> + (<0|r|b>*<b|del|0>)*] (Au)
       state          X           Y           Z        Dip. S.   Osc.(frdel)
         1        -0.0012     -0.0407     -0.2499      0.2918      0.1945
         2         0.0000      0.0000      0.0000      0.0000      0.0000
         3        -0.0115     -0.0034     -0.0766      0.0915      0.0610
         4        -0.0323     -0.0277     -0.0091      0.0690      0.0460
         5         0.0000      0.0000      0.0000      0.0000      0.0000
         6         0.0000     -0.0005     -0.0138      0.0143      0.0095
         7         0.0000      0.0000      0.0000      0.0000      0.0000
         8        -0.0052     -0.0552     -0.3134      0.3738      0.2492
         9         0.0000      0.0000      0.0000      0.0000      0.0000
        10        -0.0001     -0.0002     -0.0006      0.0008      0.0005
        11        -2.3127     -0.8306     -0.0628      3.2062      2.1374
        12         0.0000      0.0000      0.0000      0.0001      0.0000
        13        -0.0007     -0.0006     -0.0011      0.0024      0.0016
        14         0.0000      0.0000      0.0000      0.0000      0.0000
        15        -0.0024     -0.0030     -0.0344      0.0398      0.0266
        16         0.0000      0.0000      0.0000      0.0000      0.0000
        17         0.0000      0.0000      0.0000      0.0000      0.0000
        18        -0.0008     -0.0132     -0.1105      0.1245      0.0830
        19         0.0000      0.0000      0.0000      0.0000      0.0000
        20        -0.0068     -0.0007      0.0000      0.0075      0.0050
        21         0.0000      0.0000      0.0000      0.0000      0.0000
        22         0.0000      0.0000      0.0000      0.0000      0.0000
        23        -0.0006     -0.0060     -0.0378      0.0445      0.0296
        24         0.0000      0.0000      0.0000      0.0000      0.0000
        25         0.0000      0.0000      0.0000      0.0000      0.0000

 Excitation energies and oscillator strengths:
 
 Excited state symmetry could not be determined.
 Excited State   1:      Singlet-?Sym    1.7531 eV  707.22 nm  f=0.1678  <S**2>=0.000
     173 ->174         0.71136
     173 <-174        -0.10666
 This state for optimization and/or second-order correction.
 Total Energy, E(TD-HF/TD-KS) =  -2287.58908974    
 Copying the excited state density for this state as the 1-particle RhoCI density.
 
 Excited state symmetry could not be determined.
 Excited State   2:      Singlet-?Sym    2.7586 eV  449.45 nm  f=0.0000  <S**2>=0.000
     172 ->174         0.68353
     173 ->175        -0.17084
 
 Excited state symmetry could not be determined.
 Excited State   3:      Singlet-?Sym    3.1894 eV  388.74 nm  f=0.0635  <S**2>=0.000
     170 ->174         0.22065
     171 ->174         0.60216
     173 ->176         0.25057
     173 ->177        -0.14954
 
 Excited state symmetry could not be determined.
 Excited State   4:      Singlet-?Sym    3.1975 eV  387.75 nm  f=0.0512  <S**2>=0.000
     170 ->174         0.51786
     171 ->174        -0.26599
     173 ->177        -0.39254
 
 Excited state symmetry could not be determined.
 Excited State   5:      Singlet-?Sym    3.2349 eV  383.27 nm  f=0.0000  <S**2>=0.000
     172 ->174         0.16918
     173 ->175         0.68137
 
 Excited state symmetry could not be determined.
 Excited State   6:      Singlet-?Sym    3.6162 eV  342.86 nm  f=0.0099  <S**2>=0.000
     164 ->174        -0.14682
     168 ->174         0.66920
     173 ->176        -0.13652
 
 Excited state symmetry could not be determined.
 Excited State   7:      Singlet-?Sym    3.6315 eV  341.42 nm  f=0.0000  <S**2>=0.000
     163 ->174        -0.13630
     167 ->174         0.35601
     169 ->174         0.58985
 
 Excited state symmetry could not be determined.
 Excited State   8:      Singlet-?Sym    3.6867 eV  336.30 nm  f=0.2627  <S**2>=0.000
     168 ->174         0.13905
     171 ->174        -0.24416
     173 ->176         0.63155
 
 Excited state symmetry could not be determined.
 Excited State   9:      Singlet-?Sym    3.7381 eV  331.68 nm  f=0.0000  <S**2>=0.000
     167 ->174         0.58865
     169 ->174        -0.36293
 
 Excited state symmetry could not be determined.
 Excited State  10:      Singlet-?Sym    4.1202 eV  300.91 nm  f=0.0004  <S**2>=0.000
     166 ->174         0.68847
 
 Excited state symmetry could not be determined.
 Excited State  11:      Singlet-?Sym    4.2173 eV  293.99 nm  f=2.2113  <S**2>=0.000
     170 ->174         0.42786
     173 ->177         0.56005
 
 Excited state symmetry could not be determined.
 Excited State  12:      Singlet-?Sym    4.2345 eV  292.80 nm  f=0.0000  <S**2>=0.000
     165 ->174         0.61836
     172 ->177         0.15741
     173 ->178        -0.26325
 
 Excited state symmetry could not be determined.
 Excited State  13:      Singlet-?Sym    4.3895 eV  282.46 nm  f=0.0016  <S**2>=0.000
     164 ->174         0.67986
     168 ->174         0.15666
 
 Excited state symmetry could not be determined.
 Excited State  14:      Singlet-?Sym    4.4173 eV  280.68 nm  f=0.0000  <S**2>=0.000
     163 ->174         0.67902
     167 ->174         0.14001
 
 Excited state symmetry could not be determined.
 Excited State  15:      Singlet-?Sym    4.4999 eV  275.53 nm  f=0.0262  <S**2>=0.000
     162 ->174         0.65457
     166 ->174         0.10164
     172 ->175         0.13676
     173 ->180        -0.17478
 
 Excited state symmetry could not be determined.
 Excited State  16:      Singlet-?Sym    4.5786 eV  270.79 nm  f=0.0000  <S**2>=0.000
     161 ->174         0.66811
     173 ->182        -0.16982
 
 Excited state symmetry could not be determined.
 Excited State  17:      Singlet-?Sym    4.5879 eV  270.24 nm  f=0.0000  <S**2>=0.000
     173 ->178         0.19581
     173 ->179         0.65348
 
 Excited state symmetry could not be determined.
 Excited State  18:      Singlet-?Sym    4.6007 eV  269.49 nm  f=0.0771  <S**2>=0.000
     170 ->177         0.11142
     172 ->175         0.65813
     173 ->180         0.20201
 
 Excited state symmetry could not be determined.
 Excited State  19:      Singlet-?Sym    4.6158 eV  268.61 nm  f=0.0000  <S**2>=0.000
     160 ->174         0.19399
     165 ->174         0.28926
     170 ->175         0.28107
     172 ->177        -0.13969
     173 ->178         0.46166
     173 ->179        -0.23331
 
 Excited state symmetry could not be determined.
 Excited State  20:      Singlet-?Sym    4.7102 eV  263.22 nm  f=0.0054  <S**2>=0.000
     173 ->181         0.69266
 
 Excited state symmetry could not be determined.
 Excited State  21:      Singlet-?Sym    4.7714 eV  259.85 nm  f=0.0000  <S**2>=0.000
     160 ->174        -0.23392
     170 ->175        -0.25952
     172 ->177         0.46206
     173 ->178         0.37554
 
 Excited state symmetry could not be determined.
 Excited State  22:      Singlet-?Sym    4.8785 eV  254.14 nm  f=0.0000  <S**2>=0.000
     160 ->174         0.59431
     170 ->175        -0.35184
 
 Excited state symmetry could not be determined.
 Excited State  23:      Singlet-?Sym    4.8858 eV  253.76 nm  f=0.0317  <S**2>=0.000
     162 ->174         0.20383
     172 ->175        -0.16320
     173 ->180         0.63790
 
 Excited state symmetry could not be determined.
 Excited State  24:      Singlet-?Sym    4.9060 eV  252.72 nm  f=0.0000  <S**2>=0.000
     171 ->175        -0.26323
     172 ->176         0.58079
[...]
 Alpha virt. eigenvalues --    0.55776   0.55819   0.55996   0.56395   0.56845
 Alpha virt. eigenvalues --    0.57160   0.57389   0.57396   0.58389   0.58422
 Alpha virt. eigenvalues --    0.58606   0.59008   0.59046   0.59261   0.59596
 Alpha virt. eigenvalues --    0.60196   0.60545   0.60868   0.60987   0.61369
 Alpha virt. eigenvalues --    0.61538   0.61629   0.61963   0.62746   0.63011
 Alpha virt. eigenvalues --    0.63044   0.63195   0.63366   0.63677   0.63973
 Alpha virt. eigenvalues --    0.64190   0.64219   0.64359   0.64497   0.65179
 Alpha virt. eigenvalues --    0.65540   0.65624   0.65691   0.66016   0.66644
 Alpha virt. eigenvalues --    0.67297   0.67720   0.67997   0.68706   0.68964
 Alpha virt. eigenvalues --    0.69342   0.70100   0.70430   0.70443   0.70990
 Alpha virt. eigenvalues --    0.70999   0.72015   0.72205   0.72831   0.72868
 Alpha virt. eigenvalues --    0.72948   0.73319   0.74523   0.74620   0.75719
 Alpha virt. eigenvalues --    0.75796   0.76032   0.76171   0.78407   0.78448
 Alpha virt. eigenvalues --    0.78463   0.79228   0.79646   0.79862   0.80200
 Alpha virt. eigenvalues --    0.80466   0.81870   0.82027   0.83827   0.83980
 Alpha virt. eigenvalues --    0.84036   0.85480   0.85789   0.85797   0.86443
 Alpha virt. eigenvalues --    0.86611   0.87124   0.87366   0.87738   0.87976
 Alpha virt. eigenvalues --    0.88142   0.88633   0.89073   0.89136   0.89218
 Alpha virt. eigenvalues --    0.89555   0.90349   0.90391   0.91244   0.91341
 Alpha virt. eigenvalues --    0.91430   0.91925   0.92073   0.92212   0.92537
 Alpha virt. eigenvalues --    0.92596   0.93067   0.93211   0.93258   0.93526
 Alpha virt. eigenvalues --    0.94340   0.94676   0.94875   0.95219   0.95433
 Alpha virt. eigenvalues --    0.95550   0.95608   0.96277   0.96540   0.96636
 Alpha virt. eigenvalues --    0.96695   0.96767   0.97301   0.97403   0.97471
 Alpha virt. eigenvalues --    0.97892   0.97955   0.97988   0.98813   0.98827
 Alpha virt. eigenvalues --    0.99010   0.99084   0.99216   1.00253   1.00316
 Alpha virt. eigenvalues --    1.00407   1.01197   1.01236   1.01624   1.01820
 Alpha virt. eigenvalues --    1.02753   1.03330   1.03356   1.03955   1.04120
 Alpha virt. eigenvalues --    1.04335   1.04901   1.05093   1.05308   1.06166
 Alpha virt. eigenvalues --    1.06312   1.06368   1.07096   1.07298   1.07732
 Alpha virt. eigenvalues --    1.07967   1.08423   1.08622   1.08866   1.10180
 Alpha virt. eigenvalues --    1.10591   1.10771   1.11187   1.11207   1.12101
 Alpha virt. eigenvalues --    1.12192   1.12385   1.12559   1.13129   1.13144
 Alpha virt. eigenvalues --    1.13327   1.13854   1.14838   1.15208   1.15798
 Alpha virt. eigenvalues --    1.15844   1.16213   1.16432   1.17626   1.17893
 Alpha virt. eigenvalues --    1.18278   1.18435   1.19695   1.20966   1.23584
 Alpha virt. eigenvalues --    1.24290   1.24374   1.24899   1.25519   1.25714
 Alpha virt. eigenvalues --    1.26464   1.26497   1.26991   1.28167   1.30276
 Alpha virt. eigenvalues --    1.30433   1.31445   1.31750   1.31832   1.33170
 Alpha virt. eigenvalues --    1.33277   1.33486   1.33641   1.34001   1.34344
 Alpha virt. eigenvalues --    1.34482   1.34755   1.34824   1.35695   1.35740
 Alpha virt. eigenvalues --    1.36304   1.36306   1.37071   1.37684   1.37830
 Alpha virt. eigenvalues --    1.38452   1.38477   1.39028   1.39265   1.40498
 Alpha virt. eigenvalues --    1.41683   1.41695   1.43314   1.43586   1.44219
 Alpha virt. eigenvalues --    1.44261   1.45032   1.45377   1.46814   1.47368
 Alpha virt. eigenvalues --    1.48995   1.49908   1.49926   1.50406   1.50763
 Alpha virt. eigenvalues --    1.50803   1.51360   1.52970   1.53578   1.53643
 Alpha virt. eigenvalues --    1.53967   1.54565   1.55646   1.55989   1.56039
 Alpha virt. eigenvalues --    1.56808   1.58376   1.58754   1.58947   1.59489
 Alpha virt. eigenvalues --    1.59924   1.60136   1.60514   1.61688   1.62659
 Alpha virt. eigenvalues --    1.62866   1.63148   1.63733   1.63993   1.67314
 Alpha virt. eigenvalues --    1.68253   1.70502   1.71421   1.72469   1.73126
 Alpha virt. eigenvalues --    1.73424   1.73782   1.74084   1.74564   1.75256
 Alpha virt. eigenvalues --    1.75630   1.76744   1.78970   1.79470   1.79478
 Alpha virt. eigenvalues --    1.80065   1.80222   1.80768   1.81505   1.81685
 Alpha virt. eigenvalues --    1.81687   1.81984   1.82009   1.83105   1.83792
 Alpha virt. eigenvalues --    1.84541   1.84772   1.85125   1.85158   1.85886
 Alpha virt. eigenvalues --    1.86742   1.86768   1.87664   1.87941   1.89215
 Alpha virt. eigenvalues --    1.89726   1.90769   1.90803   1.91545   1.91841
 Alpha virt. eigenvalues --    1.91900   1.92133   1.92239   1.92501   1.93064
 Alpha virt. eigenvalues --    1.93312   1.93670   1.93727   1.94473   1.94712
 Alpha virt. eigenvalues --    1.95682   1.95711   1.96003   1.96273   1.96624
 Alpha virt. eigenvalues --    1.97290   1.97512   1.98119   1.98282   1.98561
 Alpha virt. eigenvalues --    1.98838   1.99182   1.99797   1.99891   2.00201
 Alpha virt. eigenvalues --    2.00787   2.00842   2.01254   2.01259   2.02993
 Alpha virt. eigenvalues --    2.03180   2.03607   2.04171   2.04220   2.05656
 Alpha virt. eigenvalues --    2.05809   2.07084   2.08421   2.09822   2.10576
 Alpha virt. eigenvalues --    2.11232   2.11243   2.11484   2.11590   2.11632
 Alpha virt. eigenvalues --    2.11672   2.11734   2.11830   2.12098   2.12123
 Alpha virt. eigenvalues --    2.12474   2.12500   2.12789   2.13274   2.13982
 Alpha virt. eigenvalues --    2.15792   2.15882   2.15942   2.17055   2.20590
 Alpha virt. eigenvalues --    2.20784   2.21193   2.21218   2.22095   2.23029
 Alpha virt. eigenvalues --    2.23040   2.23836   2.24048   2.24809   2.24881
 Alpha virt. eigenvalues --    2.24913   2.24925   2.25028   2.25066   2.26021
 Alpha virt. eigenvalues --    2.26089   2.26736   2.26800   2.27051   2.27166
 Alpha virt. eigenvalues --    2.27212   2.27264   2.27279   2.27354   2.27890
 Alpha virt. eigenvalues --    2.28187   2.28890   2.29189   2.29402   2.31078
 Alpha virt. eigenvalues --    2.31086   2.31579   2.31662   2.31919   2.32115
 Alpha virt. eigenvalues --    2.32753   2.33676   2.33757   2.34652   2.34892
 Alpha virt. eigenvalues --    2.34948   2.35162   2.35977   2.37386   2.37451
 Alpha virt. eigenvalues --    2.37516   2.38546   2.38644   2.41343   2.41443
 Alpha virt. eigenvalues --    2.42131   2.43615   2.44748   2.44954   2.45660
 Alpha virt. eigenvalues --    2.46156   2.46275   2.47107   2.47804   2.48432
 Alpha virt. eigenvalues --    2.48462   2.48834   2.48897   2.49647   2.49837
 Alpha virt. eigenvalues --    2.49858   2.50302   2.50376   2.51016   2.51042
 Alpha virt. eigenvalues --    2.51321   2.51469   2.51634   2.52017   2.52039
 Alpha virt. eigenvalues --    2.52421   2.52730   2.53025   2.53168   2.53744
 Alpha virt. eigenvalues --    2.53796   2.53874   2.53912   2.54706   2.55957
 Alpha virt. eigenvalues --    2.59015   2.59217   2.59635   2.61141   2.61909
 Alpha virt. eigenvalues --    2.62352   2.62863   2.64189   2.64494   2.65342
 Alpha virt. eigenvalues --    2.65401   2.65457   2.66187   2.66272   2.66407
 Alpha virt. eigenvalues --    2.67416   2.67455   2.67698   2.67789   2.68669
 Alpha virt. eigenvalues --    2.68775   2.68884   2.69891   2.71004   2.71229
 Alpha virt. eigenvalues --    2.71695   2.71894   2.73918   2.75521   2.75752
 Alpha virt. eigenvalues --    2.75763   2.76082   2.77359   2.79041   2.79331
 Alpha virt. eigenvalues --    2.80045   2.80220   2.81046   2.81262   2.81567
 Alpha virt. eigenvalues --    2.81678   2.82294   2.82455   2.82838   2.82855
 Alpha virt. eigenvalues --    2.82968   2.83247   2.83565   2.83863   2.83923
 Alpha virt. eigenvalues --    2.85514   2.86126   2.86184   2.86788   2.87071
 Alpha virt. eigenvalues --    2.87087   2.87951   2.88047   2.88352   2.89815
 Alpha virt. eigenvalues --    2.89924   2.90801   2.91122   2.91518   2.91796
 Alpha virt. eigenvalues --    2.91944   2.91995   2.92220   2.93431   2.93491
 Alpha virt. eigenvalues --    2.93697   3.02782   3.03237   3.03951   3.08316
 Alpha virt. eigenvalues --    3.09497   3.11143   3.11509   3.11561   3.12223
 Alpha virt. eigenvalues --    3.12273   3.13810   3.14234   3.14294   3.14559
 Alpha virt. eigenvalues --    3.14637   3.15134   3.15165   3.15434   3.15497
 Alpha virt. eigenvalues --    3.16068   3.16150   3.16442   3.16479   3.16969
 Alpha virt. eigenvalues --    3.17653   3.17738   3.18297   3.18472   3.18507
 Alpha virt. eigenvalues --    3.18621   3.21921   3.22018   3.24800   3.25442
 Alpha virt. eigenvalues --    3.26659   3.28989   3.30109   3.30766   3.33515
 Alpha virt. eigenvalues --    3.34364   3.41053   3.46532   3.51125   3.55424
 Alpha virt. eigenvalues --    3.57850   3.57982   3.58547   3.58599   3.59268
 Alpha virt. eigenvalues --    3.59351   3.61545   3.61584   3.61961   3.62015
 Alpha virt. eigenvalues --    3.62075   3.62583   3.62635   3.63841   3.63991
 Alpha virt. eigenvalues --    3.64005   3.64357   3.64523   3.65653   3.65705
 Alpha virt. eigenvalues --    3.65802   3.65833   3.71780   3.71823   3.71915
 Alpha virt. eigenvalues --    3.72021   3.72195   3.72858   3.73077   3.73120
 Alpha virt. eigenvalues --    3.74350   3.74396   3.75389   3.75467   3.75638
 Alpha virt. eigenvalues --    3.75783   3.76295   3.76401   3.76521   3.76631
 Alpha virt. eigenvalues --    3.77170   3.77301   3.81207   3.81278   3.82931
 Alpha virt. eigenvalues --    3.83015   3.84803   3.85112   3.85994   3.86874
 Alpha virt. eigenvalues --    3.87024   3.87460   3.95886   3.96850   4.08122
 Alpha virt. eigenvalues --    4.11020   4.11291   4.12170   4.12297   4.13989
 Alpha virt. eigenvalues --    4.14547   4.14700   4.15137   4.17617   4.17688
 Alpha virt. eigenvalues --    4.18903   4.21971   4.22543   4.33870   4.35073
 Alpha virt. eigenvalues --    4.36895   4.36923   4.37262   4.37782   4.39051
 Alpha virt. eigenvalues --    4.41767   4.45458   4.47026   4.48370   4.48400
 Alpha virt. eigenvalues --    4.51093   4.51186   4.55323   4.55466   4.57038
 Alpha virt. eigenvalues --    4.57074   4.58952   4.59439   4.60677   4.62815
 Alpha virt. eigenvalues --    4.62847   4.63395   4.68707   4.68927   4.76643
 Alpha virt. eigenvalues --    4.76724   4.79592   4.86995   4.96593   5.10550
          Condensed to atoms (all electrons):
 Mulliken atomic charges:
              1
     1  Si   0.575921
     2  C   -0.075619
     3  C    0.111383
     4  C   -0.158241
     5  H    0.059371
     6  C    0.103464
     7  C   -0.087060
     8  H    0.058539
     9  C   -0.062930
    10  H    0.059205
    11  C   -0.062794
    12  H    0.059087
    13  C   -0.081092
    14  H    0.056565
    15  C    0.105085
    16  C   -0.170396
    17  H    0.066833
    18  C    0.113361
    19  C    0.394303
    20  C   -0.609772
    21  C   -0.287497
    22  H    0.104778
    23  C   -0.306661
    24  H    0.124150
    25  H    0.103269
    26  H    0.093708
    27  C   -0.309668
    28  H    0.094523
    29  H    0.104778
    30  H    0.121441
    31  C   -0.272495
    32  H    0.112737
    33  C   -0.311333
    34  H    0.097980
    35  H    0.103537
    36  H    0.109057
    37  C   -0.305088
    38  H    0.106201
    39  H    0.117896
    40  H    0.090793
    41  C   -0.277300
    42  H    0.115940
    43  C   -0.308056
    44  H    0.105187
    45  H    0.096632
    46  H    0.108992
    47  C   -0.304527
    48  H    0.120627
    49  H    0.104758
    50  H    0.090598
    51  Si   0.576274
    52  C   -0.076397
    53  C    0.112466
    54  C   -0.158646
    55  H    0.059668
    56  C    0.102909
    57  C   -0.086778
    58  H    0.058440
    59  C   -0.063266
    60  H    0.059285
    61  C   -0.062372
    62  H    0.058917
    63  C   -0.081297
    64  H    0.056585
    65  C    0.105121
    66  C   -0.171147
    67  H    0.066910
    68  C    0.113932
    69  C    0.393622
    70  C   -0.609374
    71  C   -0.287270
    72  H    0.104821
    73  C   -0.306857
    74  H    0.124239
    75  H    0.103243
    76  H    0.093703
    77  C   -0.309705
    78  H    0.094521
    79  H    0.104757
    80  H    0.121410
    81  C   -0.272506
    82  H    0.112716
    83  C   -0.311235
    84  H    0.097994
    85  H    0.103622
    86  H    0.108978
    87  C   -0.305259
    88  H    0.106181
    89  H    0.117890
    90  H    0.090794
    91  C   -0.277046
    92  H    0.116010
    93  C   -0.307877
    94  H    0.105208
    95  H    0.096635
    96  H    0.108990
    97  C   -0.304910
    98  H    0.120669
    99  H    0.104746
   100  H    0.090512
 Sum of Mulliken atomic charges =   0.00000
 Mulliken charges with hydrogens summed into heavy atoms:
              1
     1  Si   0.575921
     2  C   -0.075619
     3  C    0.111383
     4  C   -0.098871
     6  C    0.103464
     7  C   -0.028521
     9  C   -0.003725
    11  C   -0.003706
    13  C   -0.024527
    15  C    0.105085
    16  C   -0.103563
    18  C    0.113361
    19  C    0.394303
    20  C   -0.609772
    21  C   -0.182719
    23  C    0.014467
    27  C    0.011073
    31  C   -0.159757
    33  C   -0.000759
    37  C    0.009803
    41  C   -0.161360
    43  C    0.002756
    47  C    0.011456
    51  Si   0.576274
    52  C   -0.076397
    53  C    0.112466
    54  C   -0.098978
    56  C    0.102909
    57  C   -0.028338
    59  C   -0.003980
    61  C   -0.003456
    63  C   -0.024712
    65  C    0.105121
    66  C   -0.104237
    68  C    0.113932
    69  C    0.393622
    70  C   -0.609374
    71  C   -0.182449
    73  C    0.014329
    77  C    0.010983
    81  C   -0.159789
    83  C   -0.000641
    87  C    0.009606
    91  C   -0.161035
    93  C    0.002956
    97  C    0.011016
 Sum of Mulliken charges with hydrogens summed into heavy atoms =   0.00000
 Electronic spatial extent (au):  <R**2>=         246502.1641
 Charge=              0.0000 electrons
 Dipole moment (field-independent basis, Debye):
    X=              0.0001    Y=              0.0010    Z=             -0.0006  Tot=              0.0012
 Quadrupole moment (field-independent basis, Debye-Ang):
   XX=           -268.6324   YY=           -279.1257   ZZ=           -263.6617
   XY=            -10.7372   XZ=             -6.9928   YZ=            -11.5295
 Traceless Quadrupole moment (field-independent basis, Debye-Ang):
   XX=              1.8409   YY=             -8.6524   ZZ=              6.8116
   XY=            -10.7372   XZ=             -6.9928   YZ=            -11.5295
 Octapole moment (field-independent basis, Debye-Ang**2):
  XXX=          -6426.4301  YYY=          -4826.4587  ZZZ=          -6595.8448  XYY=          -2349.6634
  XXY=          -1719.7066  XXZ=          -2351.6064  XZZ=          -2219.1330  YZZ=          -1711.9573
  YYZ=          -2460.7117  XYZ=           -221.7939
 Hexadecapole moment (field-independent basis, Debye-Ang**3):
 XXXX=        -112700.6167 YYYY=         -66285.2998 ZZZZ=        -143552.0330 XXXY=         -37871.0519
 XXXZ=         -52519.6708 YYYX=         -37935.8889 YYYZ=         -35758.9293 ZZZX=         -51551.4529
 ZZZY=         -34868.8874 XXYY=         -31942.1875 XXZZ=         -44563.6118 YYZZ=         -37693.6052
 XXYZ=         -13761.6765 YYXZ=         -20006.4650 ZZXY=         -14508.9711
 N-N= 5.854213794056D+03 E-N=-1.704825068064D+04  KE= 2.280797917012D+03
 Leave Link  601 at Sat Feb  2 01:38:38 2013, MaxMem= 1073741824 cpu:       3.7
 (Enter /apps/gaussian/g09_c01/g09/l9999.exe)
 1\1\GINC-CX1-15-7-1\SP\RB3LYP TD-FC\6-31G(d,p)\C44H54Si2\JMF02\02-Feb-
 2013\0\\#p scf=verytight b3lyp/6-31g(d,p) td(singlets,nstates=25) nosy
 mm\\CSD ENTRY k01029\\0,1\Si,0,7.3246218,3.49405732,13.73454049\C,0,7.
 89519977,5.27475474,9.6692504\C,0,6.90248072,6.16342899,9.19115004\C,0
 ,5.82251369,6.57504288,9.99183863\H,0,5.77488329,6.26559964,10.8872727
 3\C,0,4.82732278,7.41473114,9.52558155\C,0,3.72744551,7.82638816,10.33
 833581\H,0,3.67045693,7.52245014,11.23778452\C,0,2.76582925,8.63928261
 ,9.85033398\H,0,2.04726408,8.907831,10.41106641\C,0,2.8222809,9.096258
 74,8.50712289\H,0,2.13483955,9.6621266,8.17497994\C,0,3.83791404,8.738
 28467,7.69837701\H,0,3.85916981,9.05918385,6.80471494\C,0,4.88648498,7
 .88164689,8.16409871\C,0,5.95057172,7.50193196,7.36833682\H,0,5.994203
 72,7.82560567,6.47545352\C,0,6.97287461,6.64975416,7.83072711\C,0,7.77
 489688,4.74422493,10.9981132\C,0,7.63090887,4.26599889,12.09567245\C,0
 ,7.49985064,1.62842277,13.53714598\H,0,7.33157851,1.214442,14.43071546
 \C,0,6.46822943,1.04703269,12.55338318\H,0,6.55447792,1.49646016,11.68
 553634\H,0,5.5656265,1.18730337,12.90735504\H,0,6.62992516,0.08717097,
 12.44040102\C,0,8.91996745,1.24171155,13.10837134\H,0,8.97601141,0.268
 5909,13.00293287\H,0,9.55799452,1.53243757,13.7924392\H,0,9.13396623,1
 .6760451,12.25761351\C,0,8.65151959,4.13965066,14.89510737\H,0,9.52441
 635,3.90315244,14.46883887\C,0,8.66548848,3.47236403,16.27140074\H,0,9
 .47245456,3.74359801,16.75626349\H,0,8.66189681,2.4985193,16.16394589\
 H,0,7.87319628,3.74818826,16.77633543\C,0,8.65419146,5.66224113,15.036
 04749\H,0,7.83291566,5.94888375,15.48772888\H,0,8.69906704,6.07195379,
 14.14888701\H,0,9.43157993,5.93993695,15.56316435\C,0,5.57434901,3.936
 63351,14.24247403\H,0,5.02318942,3.48799266,13.53705324\C,0,5.14579188
 ,3.23007949,15.48523917\H,0,5.4882582,2.31095895,15.47498065\H,0,4.166
 99554,3.21252343,15.53079689\H,0,5.50068858,3.70120269,16.26801901\C,0
 ,5.16917098,5.33443905,14.12192766\H,0,5.53963673,5.71201053,13.296012
 47\H,0,5.50543754,5.8386851,14.89183138\H,0,4.19130604,5.39022216,14.0
 9773226\Si,0,8.62411554,8.03390657,2.94371407\C,0,8.05348275,6.2522106
 6,7.00900015\C,0,9.04620181,5.36353641,7.48710052\C,0,10.12517542,4.95
 197665,6.68651292\H,0,10.17385405,5.26236424,5.79098183\C,0,11.1213597
 5,4.11223425,7.152669\C,0,12.22129183,3.70157573,6.33991874\H,0,12.278
 2256,4.00451526,5.44046603\C,0,13.18290809,2.88868127,6.82792057\H,0,1
 3.90141844,2.61913439,6.26718414\C,0,13.12640162,2.43070666,8.17112766
 \H,0,13.81389779,1.86583728,8.50327462\C,0,12.11076848,2.78868073,8.97
 987354\H,0,12.08951271,2.46778154,9.87353561\C,0,11.06219754,3.6453185
 1,8.51415184\C,0,9.99717221,4.02608605,9.31001874\H,0,9.95447881,3.701
 35973,10.20279703\C,0,8.9748145,4.87726537,8.84762443\C,0,8.17378564,6
 .78274047,5.68013735\C,0,8.31777366,7.26096651,4.5825781\C,0,8.4488318
 8,9.89854263,3.14110457\H,0,8.61616541,10.31357602,2.24764009\C,0,9.47
 945968,10.47998684,4.12496836\H,0,9.3942046,10.03050524,4.99271421\H,0
 ,10.38305603,10.33966203,3.77089551\H,0,9.31881218,11.44079292,4.23785
 354\C,0,7.02871508,10.28525385,3.56987921\H,0,6.97267111,11.2583745,3.
 67531769\H,0,6.390688,9.99452783,2.88581135\H,0,6.81372288,9.85097443,
 4.42073804\C,0,7.29721775,7.38831323,1.78314718\H,0,6.42327276,7.62386
 709,2.20951267\C,0,7.28225544,8.05565399,0.40695481\H,0,6.47523455,7.7
 8342152,-0.07791194\H,0,7.2857923,9.02850023,0.51440566\H,0,8.07548625
 ,7.77877714,-0.09808488\C,0,7.29454588,5.86572275,1.64220707\H,0,8.115
 76686,5.57808165,1.19052167\H,0,7.24961549,5.4550116,2.52936354\H,0,6.
 51715741,5.58802694,1.1150902\C,0,10.37438833,7.59133038,2.43578053\H,
 0,10.92549311,8.03897274,3.14119731\C,0,10.80294546,8.29788439,1.19301
 538\H,0,10.45943091,9.21606058,1.20337089\H,0,11.78168699,8.31444196,1
 .14745366\H,0,10.44804876,7.8267612,0.41023555\C,0,10.77857295,6.19357
 897,2.55642789\H,0,10.40904579,5.81495486,3.38223808\H,0,10.44225157,5
 .68833443,1.78652017\H,0,11.75737648,6.13674323,2.58051829\\Version=EM
 64L-G09RevC.01\HF=-2287.6535158\RMSD=2.083e-09\PG=C01 [X(C44H54Si2)]\\
 @


 ORIGINALITY CONSISTS NOT IN SAYING WHAT NO ONE HAS EVER SAID BEFORE, 
 BUT IN SAYING WHAT YOU THINK YOUR SELF.

                                    -- JAMES F. STEPHEN
 Job cpu time:  1 days  6 hours 22 minutes 54.5 seconds.
 File lengths (MBytes):  RWF=   4751 Int=      0 D2E=      0 Chk=    780 Scr=      1
 Normal termination of Gaussian 09 at Sat Feb  2 01:38:40 2013.
