 Entering Gaussian System, Link 0=g03
 Input=k01094_tes_Tv1.com
 Output=k01094_tes_Tv1.log
 Initial command:
 /apps/gaussian/g09/g09/l1.exe /tmp/pbs.509044.cx1b/Gau-18950.inp -scrdir=/tmp/pbs.509044.cx1b/
 Entering Link 1 = /apps/gaussian/g09/g09/l1.exe PID=     18958.
  
 Copyright (c) 1988,1990,1992,1993,1995,1998,2003,2009, Gaussian, Inc.
                  All Rights Reserved.
  
 This is part of the Gaussian(R) 09 program.  It is based on
 the Gaussian(R) 03 system (copyright 2003, Gaussian, Inc.),
 the Gaussian(R) 98 system (copyright 1998, Gaussian, Inc.),
 the Gaussian(R) 94 system (copyright 1995, Gaussian, Inc.),
 the Gaussian 92(TM) system (copyright 1992, Gaussian, Inc.),
 the Gaussian 90(TM) system (copyright 1990, Gaussian, Inc.),
 the Gaussian 88(TM) system (copyright 1988, Gaussian, Inc.),
 the Gaussian 86(TM) system (copyright 1986, Carnegie Mellon
 University), and the Gaussian 82(TM) system (copyright 1983,
 Carnegie Mellon University). Gaussian is a federally registered
 trademark of Gaussian, Inc.
  
 This software contains proprietary and confidential information,
 including trade secrets, belonging to Gaussian, Inc.
  
 This software is provided under written license and may be
 used, copied, transmitted, or stored only in accord with that
 written license.
  
 The following legend is applicable only to US Government
 contracts under FAR:
  
                    RESTRICTED RIGHTS LEGEND
  
 Use, reproduction and disclosure by the US Government is
 subject to restrictions as set forth in subparagraphs (a)
 and (c) of the Commercial Computer Software - Restricted
 Rights clause in FAR 52.227-19.
  
 Gaussian, Inc.
 340 Quinnipiac St., Bldg. 40, Wallingford CT 06492
  
  
 ---------------------------------------------------------------
 Warning -- This program may not be used in any manner that
 competes with the business of Gaussian, Inc. or will provide
 assistance to any competitor of Gaussian, Inc.  The licensee
 of this program is prohibited from giving any competitor of
 Gaussian, Inc. access to this program.  By using this program,
 the user acknowledges that Gaussian, Inc. is engaged in the
 business of creating and licensing software in the field of
 computational chemistry and represents and warrants to the
 licensee that it is not a competitor of Gaussian, Inc. and that
 it will not use this program in any manner prohibited above.
 ---------------------------------------------------------------
  

 Cite this work as:
 Gaussian 09, Revision A.02,
 M. J. Frisch, G. W. Trucks, H. B. Schlegel, G. E. Scuseria, 
 M. A. Robb, J. R. Cheeseman, G. Scalmani, V. Barone, B. Mennucci, 
 G. A. Petersson, H. Nakatsuji, M. Caricato, X. Li, H. P. Hratchian, 
 A. F. Izmaylov, J. Bloino, G. Zheng, J. L. Sonnenberg, M. Hada, 
 M. Ehara, K. Toyota, R. Fukuda, J. Hasegawa, M. Ishida, T. Nakajima, 
 Y. Honda, O. Kitao, H. Nakai, T. Vreven, J. A. Montgomery, Jr., 
 J. E. Peralta, F. Ogliaro, M. Bearpark, J. J. Heyd, E. Brothers, 
 K. N. Kudin, V. N. Staroverov, R. Kobayashi, J. Normand, 
 K. Raghavachari, A. Rendell, J. C. Burant, S. S. Iyengar, J. Tomasi, 
 M. Cossi, N. Rega, J. M. Millam, M. Klene, J. E. Knox, J. B. Cross, 
 V. Bakken, C. Adamo, J. Jaramillo, R. Gomperts, R. E. Stratmann, 
 O. Yazyev, A. J. Austin, R. Cammi, C. Pomelli, J. W. Ochterski, 
 R. L. Martin, K. Morokuma, V. G. Zakrzewski, G. A. Voth, 
 P. Salvador, J. J. Dannenberg, S. Dapprich, A. D. Daniels, 
 O. Farkas, J. B. Foresman, J. V. Ortiz, J. Cioslowski, 
 and D. J. Fox, Gaussian, Inc., Wallingford CT, 2009.
 
 ******************************************
 Gaussian 09:  EM64L-G09RevA.02 11-Jun-2009
                 5-Jan-2012 
 ******************************************
 %chk=k01094_tes_Tv1.chk
 %Mem=8Gb
 %nproc=8
 Will use up to    8 processors via shared memory.
 ---------------------------------------------------------
 #p scf=verytight b3lyp/6-31g(d,p) td(singlets,nstates=25)
 ---------------------------------------------------------
 1/38=1/1;
 2/12=2,17=6,18=5,40=1/2;
 3/5=1,6=6,7=101,11=2,16=1,25=1,30=1,74=-5/1,2,8,3;
 4//1;
 5/5=2,17=3,38=5/2;
 8/6=1,10=2,108=25/1;
 9/41=25,42=1,48=1/14;
 6/7=2,8=2,9=2,10=2/1;
 99/5=1,9=1/99;
 Leave Link    1 at Thu Jan  5 21:05:46 2012, MaxMem= 1073741824 cpu:       0.3
 (Enter /apps/gaussian/g09/g09/l101.exe)
 ----------------
 CSD ENTRY k01094
 ----------------
 Symbolic Z-matrix:
 Charge =  0 Multiplicity = 1
 Si(PDBName=Si1,ResName=UNK,ResNum=1)  7.67676   4.94253   2.12464 
 Si(PDBName=Si2,ResName=UNK,ResNum=1)  4.28162   9.81254   11.99769 
 C(PDBName=C1,ResName=UNK,ResNum=1)  5.88831   5.96627   6.07011 
 C(PDBName=C2,ResName=UNK,ResNum=1)  6.09047   5.24232   7.26812 
 C(PDBName=C3,ResName=UNK,ResNum=1)  6.62881   3.94071   7.27218 
 H(PDBName=H3,ResName=UNK,ResNum=1)  6.8715    3.54304   6.44484 
 C(PDBName=C4,ResName=UNK,ResNum=1)  6.81589   3.22362   8.43886 
 C(PDBName=C5,ResName=UNK,ResNum=1)  7.35926   1.90045   8.45262 
 H(PDBName=H5,ResName=UNK,ResNum=1)  7.59858   1.48605   7.63231 
 C(PDBName=C6,ResName=UNK,ResNum=1)  7.54025   1.22634   9.61403 
 H(PDBName=H6,ResName=UNK,ResNum=1)  7.90027   0.34685   9.59742 
 C(PDBName=C7,ResName=UNK,ResNum=1)  7.19697   1.82693   10.85695 
 H(PDBName=H7,ResName=UNK,ResNum=1)  7.33393   1.34816   11.66574 
 C(PDBName=C8,ResName=UNK,ResNum=1)  6.67611   3.07412   10.89545 
 H(PDBName=H8,ResName=UNK,ResNum=1)  6.44429   3.45592   11.73444 
 C(PDBName=C9,ResName=UNK,ResNum=1)  6.46769   3.83281   9.69765 
 C(PDBName=C10,ResName=UNK,ResNum=1)  5.95395   5.11586   9.71255 
 H(PDBName=H10,ResName=UNK,ResNum=1)  5.73473   5.51544   10.54618 
 C(PDBName=C11,ResName=UNK,ResNum=1)  5.74489   5.84868   8.53039 
 C(PDBName=C12,ResName=UNK,ResNum=1)  5.24618   7.18179   8.55055 
 C(PDBName=C13,ResName=UNK,ResNum=1)  5.00798   7.89329   7.34628 
 C(PDBName=C14,ResName=UNK,ResNum=1)  4.52458   9.21207   7.33206 
 H(PDBName=H14,ResName=UNK,ResNum=1)  4.33632   9.638     8.15951 
 C(PDBName=C15,ResName=UNK,ResNum=1)  4.31255   9.91646   6.15489 
 C(PDBName=C16,ResName=UNK,ResNum=1)  3.87263   11.27182   6.13855 
 H(PDBName=H16,ResName=UNK,ResNum=1)  3.73088   11.72707   6.95999 
 C(PDBName=C17,ResName=UNK,ResNum=1)  3.6506    11.92653   4.96813 
 H(PDBName=H17,ResName=UNK,ResNum=1)  3.36908   12.83304   4.9795 
 C(PDBName=C18,ResName=UNK,ResNum=1)  3.83999   11.25774   3.72182 
 H(PDBName=H18,ResName=UNK,ResNum=1)  3.65971   11.71531   2.90944 
 C(PDBName=C19,ResName=UNK,ResNum=1)  4.27263   9.97909   3.69053 
 H(PDBName=H19,ResName=UNK,ResNum=1)  4.39687   9.54989   2.85174 
 C(PDBName=C20,ResName=UNK,ResNum=1)  4.55025   9.25348   4.89848 
 C(PDBName=C21,ResName=UNK,ResNum=1)  5.04013   7.95889   4.89214 
 H(PDBName=H21,ResName=UNK,ResNum=1)  5.20269   7.52954   4.05971 
 C(PDBName=C22,ResName=UNK,ResNum=1)  5.30535   7.25979   6.08358 
 C(PDBName=C23,ResName=UNK,ResNum=1)  6.36652   5.44971   4.81807 
 C(PDBName=C24,ResName=UNK,ResNum=1)  6.83687   5.1281    3.74769 
 C(PDBName=C25,ResName=UNK,ResNum=1)  9.51188   5.09836   2.38159 
 H(PDBName=H25A,ResName=UNK,ResNum=1)  9.7299    6.01747   2.64161 
 H(PDBName=H25B,ResName=UNK,ResNum=1)  9.97885   4.8752    1.54801 
 H(PDBName=H25C,ResName=UNK,ResNum=1)  9.79559   4.48169   3.08845 
 C(PDBName=C26,ResName=UNK,ResNum=1)  7.29153   3.27432   1.39351 
 H(PDBName=H26A,ResName=UNK,ResNum=1)  7.53957   2.57366   2.03136 
 H(PDBName=H26B,ResName=UNK,ResNum=1)  7.79948   3.15685   0.56418 
 H(PDBName=H26C,ResName=UNK,ResNum=1)  6.33218   3.21705   1.20039 
 C(PDBName=C27,ResName=UNK,ResNum=1)  7.03028   6.3347    1.02103 
 C(PDBName=C28,ResName=UNK,ResNum=1)  7.64491   6.20556  -0.37887 
 H(PDBName=H28A,ResName=UNK,ResNum=1)  7.35521   5.36196  -0.78551 
 H(PDBName=H28B,ResName=UNK,ResNum=1)  8.62235   6.21528  -0.30782 
 H(PDBName=H28C,ResName=UNK,ResNum=1)  7.3488    6.95484  -0.93585 
 C(PDBName=C29,ResName=UNK,ResNum=1)  5.50431   6.25659   0.9048 
 H(PDBName=H29A,ResName=UNK,ResNum=1)  5.10472   6.34196   1.79536 
 H(PDBName=H29B,ResName=UNK,ResNum=1)  5.25031   5.39435   0.51387 
 H(PDBName=H29C,ResName=UNK,ResNum=1)  5.18284   6.9829    0.33099 
 C(PDBName=C30,ResName=UNK,ResNum=1)  7.41699   7.70518   1.60464 
 H(PDBName=H30A,ResName=UNK,ResNum=1)  7.04793   8.41628   1.0405 
 H(PDBName=H30B,ResName=UNK,ResNum=1)  8.39419   7.78435   1.63324 
 H(PDBName=H30C,ResName=UNK,ResNum=1)  7.05622   7.78707   2.51227 
 C(PDBName=C31,ResName=UNK,ResNum=1)  4.98373   7.86219   9.78719 
 C(PDBName=C32,ResName=UNK,ResNum=1)  4.7402    8.54041   10.76398 
 C(PDBName=C33,ResName=UNK,ResNum=1)  2.56019   10.38794   11.59481 
 H(PDBName=H33A,ResName=UNK,ResNum=1)  2.53225   10.71107   10.66964 
 H(PDBName=H33B,ResName=UNK,ResNum=1)  2.30868   11.1141   12.20212 
 H(PDBName=H33C,ResName=UNK,ResNum=1)  1.93364   9.64148   11.69988 
 C(PDBName=C34,ResName=UNK,ResNum=1)  4.29441   9.0848    13.70565 
 H(PDBName=H34A,ResName=UNK,ResNum=1)  3.7156    8.29456   13.728 
 H(PDBName=H34B,ResName=UNK,ResNum=1)  3.96457   9.74991   14.3464 
 H(PDBName=H34C,ResName=UNK,ResNum=1)  5.20951   8.82621   13.9441 
 C(PDBName=C35,ResName=UNK,ResNum=1)  5.52526   11.22465   11.83927 
 C(PDBName=C36,ResName=UNK,ResNum=1)  6.91715   10.75602   12.27193 
 H(PDBName=H36A,ResName=UNK,ResNum=1)  7.18794   9.98877   11.72615 
 H(PDBName=H36B,ResName=UNK,ResNum=1)  6.89477   10.4925   13.21623 
 H(PDBName=H36C,ResName=UNK,ResNum=1)  7.56054   11.48525   12.15225 
 C(PDBName=C37,ResName=UNK,ResNum=1)  5.11022   12.40094   12.73139 
 H(PDBName=H37A,ResName=UNK,ResNum=1)  5.05139   12.10008   13.66155 
 H(PDBName=H37B,ResName=UNK,ResNum=1)  4.2367    12.73902   12.44182 
 H(PDBName=H37C,ResName=UNK,ResNum=1)  5.77668   13.11602   12.66038 
 C(PDBName=C38,ResName=UNK,ResNum=1)  5.59985   11.71008   10.37952 
 H(PDBName=H38A,ResName=UNK,ResNum=1)  6.23134   12.45698   10.3159 
 H(PDBName=H38B,ResName=UNK,ResNum=1)  4.71248   12.00675   10.08825 
 H(PDBName=H38C,ResName=UNK,ResNum=1)  5.90357   10.97556   9.80712 
 Si(PDBName=Si1,ResName=UNK,ResNum=1)  15.4958   4.94253   2.12464 
 Si(PDBName=Si2,ResName=UNK,ResNum=1)  12.1006   9.81254   11.9977 
 C(PDBName=C1,ResName=UNK,ResNum=1)  13.7073   5.96627   6.07011 
 C(PDBName=C2,ResName=UNK,ResNum=1)  13.9095   5.24232   7.26812 
 C(PDBName=C3,ResName=UNK,ResNum=1)  14.4478   3.94071   7.27218 
 H(PDBName=H3,ResName=UNK,ResNum=1)  14.6905   3.54304   6.44484 
 C(PDBName=C4,ResName=UNK,ResNum=1)  14.6349   3.22362   8.43886 
 C(PDBName=C5,ResName=UNK,ResNum=1)  15.1783   1.90045   8.45262 
 H(PDBName=H5,ResName=UNK,ResNum=1)  15.4176   1.48605   7.63231 
 C(PDBName=C6,ResName=UNK,ResNum=1)  15.3592   1.22634   9.61403 
 H(PDBName=H6,ResName=UNK,ResNum=1)  15.7193   0.34685   9.59742 
 C(PDBName=C7,ResName=UNK,ResNum=1)  15.016    1.82693   10.8569 
 H(PDBName=H7,ResName=UNK,ResNum=1)  15.1529   1.34816   11.6657 
 C(PDBName=C8,ResName=UNK,ResNum=1)  14.4951   3.07412   10.8954 
 H(PDBName=H8,ResName=UNK,ResNum=1)  14.2633   3.45592   11.7344 
 C(PDBName=C9,ResName=UNK,ResNum=1)  14.2867   3.83281   9.69765 
 C(PDBName=C10,ResName=UNK,ResNum=1)  13.7729   5.11586   9.71255 
 H(PDBName=H10,ResName=UNK,ResNum=1)  13.5537   5.51544   10.5462 
 C(PDBName=C11,ResName=UNK,ResNum=1)  13.5639   5.84868   8.53039 
 C(PDBName=C12,ResName=UNK,ResNum=1)  13.0652   7.18179   8.55055 
 C(PDBName=C13,ResName=UNK,ResNum=1)  12.827    7.89329   7.34628 
 C(PDBName=C14,ResName=UNK,ResNum=1)  12.3436   9.21207   7.33206 
 H(PDBName=H14,ResName=UNK,ResNum=1)  12.1553   9.638     8.15951 
 C(PDBName=C15,ResName=UNK,ResNum=1)  12.1315   9.91646   6.15489 
 C(PDBName=C16,ResName=UNK,ResNum=1)  11.6916   11.2718   6.13855 
 H(PDBName=H16,ResName=UNK,ResNum=1)  11.5499   11.7271   6.95999 
 C(PDBName=C17,ResName=UNK,ResNum=1)  11.4696   11.9265   4.96813 
 H(PDBName=H17,ResName=UNK,ResNum=1)  11.1881   12.833    4.9795 
 C(PDBName=C18,ResName=UNK,ResNum=1)  11.659    11.2577   3.72182 
 H(PDBName=H18,ResName=UNK,ResNum=1)  11.4787   11.7153   2.90944 
 C(PDBName=C19,ResName=UNK,ResNum=1)  12.0916   9.97909   3.69053 
 H(PDBName=H19,ResName=UNK,ResNum=1)  12.2159   9.54989   2.85174 
 C(PDBName=C20,ResName=UNK,ResNum=1)  12.3692   9.25348   4.89848 
 C(PDBName=C21,ResName=UNK,ResNum=1)  12.8591   7.95889   4.89214 
 H(PDBName=H21,ResName=UNK,ResNum=1)  13.0217   7.52954   4.05971 
 C(PDBName=C22,ResName=UNK,ResNum=1)  13.1244   7.25979   6.08358 
 C(PDBName=C23,ResName=UNK,ResNum=1)  14.1855   5.44971   4.81807 
 C(PDBName=C24,ResName=UNK,ResNum=1)  14.6559   5.1281    3.74769 
 C(PDBName=C25,ResName=UNK,ResNum=1)  17.3309   5.09836   2.38159 
 H(PDBName=H25A,ResName=UNK,ResNum=1)  17.5489   6.01747   2.64161 
 H(PDBName=H25B,ResName=UNK,ResNum=1)  17.7978   4.8752    1.54801 
 H(PDBName=H25C,ResName=UNK,ResNum=1)  17.6146   4.48169   3.08845 
 C(PDBName=C26,ResName=UNK,ResNum=1)  15.1105   3.27432   1.39351 
 H(PDBName=H26A,ResName=UNK,ResNum=1)  15.3586   2.57366   2.03136 
 H(PDBName=H26B,ResName=UNK,ResNum=1)  15.6185   3.15685   0.56418 
 H(PDBName=H26C,ResName=UNK,ResNum=1)  14.1512   3.21705   1.20039 
 C(PDBName=C27,ResName=UNK,ResNum=1)  14.8493   6.3347    1.02103 
 C(PDBName=C28,ResName=UNK,ResNum=1)  15.4639   6.20556  -0.37887 
 H(PDBName=H28A,ResName=UNK,ResNum=1)  15.1742   5.36196  -0.78551 
 H(PDBName=H28B,ResName=UNK,ResNum=1)  16.4414   6.21528  -0.30782 
 H(PDBName=H28C,ResName=UNK,ResNum=1)  15.1678   6.95484  -0.93585 
 C(PDBName=C29,ResName=UNK,ResNum=1)  13.3233   6.25659   0.9048 
 H(PDBName=H29A,ResName=UNK,ResNum=1)  12.9237   6.34196   1.79536 
 H(PDBName=H29B,ResName=UNK,ResNum=1)  13.0693   5.39435   0.51387 
 H(PDBName=H29C,ResName=UNK,ResNum=1)  13.0018   6.9829    0.33099 
 C(PDBName=C30,ResName=UNK,ResNum=1)  15.236    7.70518   1.60464 
 H(PDBName=H30A,ResName=UNK,ResNum=1)  14.8669   8.41628   1.0405 
 H(PDBName=H30B,ResName=UNK,ResNum=1)  16.2132   7.78435   1.63324 
 H(PDBName=H30C,ResName=UNK,ResNum=1)  14.8752   7.78707   2.51227 
 C(PDBName=C31,ResName=UNK,ResNum=1)  12.8027   7.86219   9.78719 
 C(PDBName=C32,ResName=UNK,ResNum=1)  12.5592   8.54041   10.764 
 C(PDBName=C33,ResName=UNK,ResNum=1)  10.3792   10.3879   11.5948 
 H(PDBName=H33A,ResName=UNK,ResNum=1)  10.3512   10.7111   10.6696 
 H(PDBName=H33B,ResName=UNK,ResNum=1)  10.1277   11.1141   12.2021 
 H(PDBName=H33C,ResName=UNK,ResNum=1)  9.75264   9.64148   11.6999 
 C(PDBName=C34,ResName=UNK,ResNum=1)  12.1134   9.0848    13.7056 
 H(PDBName=H34A,ResName=UNK,ResNum=1)  11.5346   8.29456   13.728 
 H(PDBName=H34B,ResName=UNK,ResNum=1)  11.7836   9.74991   14.3464 
 H(PDBName=H34C,ResName=UNK,ResNum=1)  13.0285   8.82621   13.9441 
 C(PDBName=C35,ResName=UNK,ResNum=1)  13.3443   11.2247   11.8393 
 C(PDBName=C36,ResName=UNK,ResNum=1)  14.7362   10.756    12.2719 
 H(PDBName=H36A,ResName=UNK,ResNum=1)  15.0069   9.98877   11.7261 
 H(PDBName=H36B,ResName=UNK,ResNum=1)  14.7138   10.4925   13.2162 
 H(PDBName=H36C,ResName=UNK,ResNum=1)  15.3795   11.4853   12.1523 
 C(PDBName=C37,ResName=UNK,ResNum=1)  12.9292   12.4009   12.7314 
 H(PDBName=H37A,ResName=UNK,ResNum=1)  12.8704   12.1001   13.6616 
 H(PDBName=H37B,ResName=UNK,ResNum=1)  12.0557   12.739    12.4418 
 H(PDBName=H37C,ResName=UNK,ResNum=1)  13.5957   13.116    12.6604 
 C(PDBName=C38,ResName=UNK,ResNum=1)  13.4188   11.7101   10.3795 
 H(PDBName=H38A,ResName=UNK,ResNum=1)  14.0503   12.457    10.3159 
 H(PDBName=H38B,ResName=UNK,ResNum=1)  12.5315   12.0068   10.0883 
 H(PDBName=H38C,ResName=UNK,ResNum=1)  13.7226   10.9756   9.80712 
 
 NAtoms=    164 NQM=    164 NQMF=      0 NMic=      0 NMicF=      0 NTot=    164.
                    Isotopes and Nuclear Properties:
 (Nuclear quadrupole moments (NQMom) in fm**2, nuclear magnetic moments (NMagM)
  in nuclear magnetons)

  Atom         1           2           3           4           5           6           7           8           9          10
 IAtWgt=          28          28          12          12          12           1          12          12           1          12
 AtmWgt=  27.9769284  27.9769284  12.0000000  12.0000000  12.0000000   1.0078250  12.0000000  12.0000000   1.0078250  12.0000000
 NucSpn=           0           0           0           0           0           1           0           0           1           0
 AtZEff=   0.0000000   0.0000000   0.0000000   0.0000000   0.0000000   0.0000000   0.0000000   0.0000000   0.0000000   0.0000000
 NQMom=    0.0000000   0.0000000   0.0000000   0.0000000   0.0000000   0.0000000   0.0000000   0.0000000   0.0000000   0.0000000
 NMagM=    0.0000000   0.0000000   0.0000000   0.0000000   0.0000000   2.7928460   0.0000000   0.0000000   2.7928460   0.0000000

  Atom        11          12          13          14          15          16          17          18          19          20
 IAtWgt=           1          12           1          12           1          12          12           1          12          12
 AtmWgt=   1.0078250  12.0000000   1.0078250  12.0000000   1.0078250  12.0000000  12.0000000   1.0078250  12.0000000  12.0000000
 NucSpn=           1           0           1           0           1           0           0           1           0           0
 AtZEff=   0.0000000   0.0000000   0.0000000   0.0000000   0.0000000   0.0000000   0.0000000   0.0000000   0.0000000   0.0000000
 NQMom=    0.0000000   0.0000000   0.0000000   0.0000000   0.0000000   0.0000000   0.0000000   0.0000000   0.0000000   0.0000000
 NMagM=    2.7928460   0.0000000   2.7928460   0.0000000   2.7928460   0.0000000   0.0000000   2.7928460   0.0000000   0.0000000

  Atom        21          22          23          24          25          26          27          28          29          30
 IAtWgt=          12          12           1          12          12           1          12           1          12           1
 AtmWgt=  12.0000000  12.0000000   1.0078250  12.0000000  12.0000000   1.0078250  12.0000000   1.0078250  12.0000000   1.0078250
 NucSpn=           0           0           1           0           0           1           0           1           0           1
 AtZEff=   0.0000000   0.0000000   0.0000000   0.0000000   0.0000000   0.0000000   0.0000000   0.0000000   0.0000000   0.0000000
 NQMom=    0.0000000   0.0000000   0.0000000   0.0000000   0.0000000   0.0000000   0.0000000   0.0000000   0.0000000   0.0000000
 NMagM=    0.0000000   0.0000000   2.7928460   0.0000000   0.0000000   2.7928460   0.0000000   2.7928460   0.0000000   2.7928460

  Atom        31          32          33          34          35          36          37          38          39          40
 IAtWgt=          12           1          12          12           1          12          12          12          12           1
 AtmWgt=  12.0000000   1.0078250  12.0000000  12.0000000   1.0078250  12.0000000  12.0000000  12.0000000  12.0000000   1.0078250
 NucSpn=           0           1           0           0           1           0           0           0           0           1
 AtZEff=   0.0000000   0.0000000   0.0000000   0.0000000   0.0000000   0.0000000   0.0000000   0.0000000   0.0000000   0.0000000
 NQMom=    0.0000000   0.0000000   0.0000000   0.0000000   0.0000000   0.0000000   0.0000000   0.0000000   0.0000000   0.0000000
 NMagM=    0.0000000   2.7928460   0.0000000   0.0000000   2.7928460   0.0000000   0.0000000   0.0000000   0.0000000   2.7928460

  Atom        41          42          43          44          45          46          47          48          49          50
 IAtWgt=           1           1          12           1           1           1          12          12           1           1
 AtmWgt=   1.0078250   1.0078250  12.0000000   1.0078250   1.0078250   1.0078250  12.0000000  12.0000000   1.0078250   1.0078250
 NucSpn=           1           1           0           1           1           1           0           0           1           1
 AtZEff=   0.0000000   0.0000000   0.0000000   0.0000000   0.0000000   0.0000000   0.0000000   0.0000000   0.0000000   0.0000000
 NQMom=    0.0000000   0.0000000   0.0000000   0.0000000   0.0000000   0.0000000   0.0000000   0.0000000   0.0000000   0.0000000
 NMagM=    2.7928460   2.7928460   0.0000000   2.7928460   2.7928460   2.7928460   0.0000000   0.0000000   2.7928460   2.7928460

  Atom        51          52          53          54          55          56          57          58          59          60
 IAtWgt=           1          12           1           1           1          12           1           1           1          12
 AtmWgt=   1.0078250  12.0000000   1.0078250   1.0078250   1.0078250  12.0000000   1.0078250   1.0078250   1.0078250  12.0000000
 NucSpn=           1           0           1           1           1           0           1           1           1           0
 AtZEff=   0.0000000   0.0000000   0.0000000   0.0000000   0.0000000   0.0000000   0.0000000   0.0000000   0.0000000   0.0000000
 NQMom=    0.0000000   0.0000000   0.0000000   0.0000000   0.0000000   0.0000000   0.0000000   0.0000000   0.0000000   0.0000000
 NMagM=    2.7928460   0.0000000   2.7928460   2.7928460   2.7928460   0.0000000   2.7928460   2.7928460   2.7928460   0.0000000

  Atom        61          62          63          64          65          66          67          68          69          70
 IAtWgt=          12          12           1           1           1          12           1           1           1          12
 AtmWgt=  12.0000000  12.0000000   1.0078250   1.0078250   1.0078250  12.0000000   1.0078250   1.0078250   1.0078250  12.0000000
 NucSpn=           0           0           1           1           1           0           1           1           1           0
 AtZEff=   0.0000000   0.0000000   0.0000000   0.0000000   0.0000000   0.0000000   0.0000000   0.0000000   0.0000000   0.0000000
 NQMom=    0.0000000   0.0000000   0.0000000   0.0000000   0.0000000   0.0000000   0.0000000   0.0000000   0.0000000   0.0000000
 NMagM=    0.0000000   0.0000000   2.7928460   2.7928460   2.7928460   0.0000000   2.7928460   2.7928460   2.7928460   0.0000000

  Atom        71          72          73          74          75          76          77          78          79          80
 IAtWgt=          12           1           1           1          12           1           1           1          12           1
 AtmWgt=  12.0000000   1.0078250   1.0078250   1.0078250  12.0000000   1.0078250   1.0078250   1.0078250  12.0000000   1.0078250
 NucSpn=           0           1           1           1           0           1           1           1           0           1
 AtZEff=   0.0000000   0.0000000   0.0000000   0.0000000   0.0000000   0.0000000   0.0000000   0.0000000   0.0000000   0.0000000
 NQMom=    0.0000000   0.0000000   0.0000000   0.0000000   0.0000000   0.0000000   0.0000000   0.0000000   0.0000000   0.0000000
 NMagM=    0.0000000   2.7928460   2.7928460   2.7928460   0.0000000   2.7928460   2.7928460   2.7928460   0.0000000   2.7928460

  Atom        81          82          83          84          85          86          87          88          89          90
 IAtWgt=           1           1          28          28          12          12          12           1          12          12
 AtmWgt=   1.0078250   1.0078250  27.9769284  27.9769284  12.0000000  12.0000000  12.0000000   1.0078250  12.0000000  12.0000000
 NucSpn=           1           1           0           0           0           0           0           1           0           0
 AtZEff=   0.0000000   0.0000000   0.0000000   0.0000000   0.0000000   0.0000000   0.0000000   0.0000000   0.0000000   0.0000000
 NQMom=    0.0000000   0.0000000   0.0000000   0.0000000   0.0000000   0.0000000   0.0000000   0.0000000   0.0000000   0.0000000
 NMagM=    2.7928460   2.7928460   0.0000000   0.0000000   0.0000000   0.0000000   0.0000000   2.7928460   0.0000000   0.0000000

  Atom        91          92          93          94          95          96          97          98          99         100
 IAtWgt=           1          12           1          12           1          12           1          12          12           1
 AtmWgt=   1.0078250  12.0000000   1.0078250  12.0000000   1.0078250  12.0000000   1.0078250  12.0000000  12.0000000   1.0078250
 NucSpn=           1           0           1           0           1           0           1           0           0           1
 AtZEff=   0.0000000   0.0000000   0.0000000   0.0000000   0.0000000   0.0000000   0.0000000   0.0000000   0.0000000   0.0000000
 NQMom=    0.0000000   0.0000000   0.0000000   0.0000000   0.0000000   0.0000000   0.0000000   0.0000000   0.0000000   0.0000000
 NMagM=    2.7928460   0.0000000   2.7928460   0.0000000   2.7928460   0.0000000   2.7928460   0.0000000   0.0000000   2.7928460

  Atom       101         102         103         104         105         106         107         108         109         110
 IAtWgt=          12          12          12          12           1          12          12           1          12           1
 AtmWgt=  12.0000000  12.0000000  12.0000000  12.0000000   1.0078250  12.0000000  12.0000000   1.0078250  12.0000000   1.0078250
 NucSpn=           0           0           0           0           1           0           0           1           0           1
 AtZEff=   0.0000000   0.0000000   0.0000000   0.0000000   0.0000000   0.0000000   0.0000000   0.0000000   0.0000000   0.0000000
 NQMom=    0.0000000   0.0000000   0.0000000   0.0000000   0.0000000   0.0000000   0.0000000   0.0000000   0.0000000   0.0000000
 NMagM=    0.0000000   0.0000000   0.0000000   0.0000000   2.7928460   0.0000000   0.0000000   2.7928460   0.0000000   2.7928460

  Atom       111         112         113         114         115         116         117         118         119         120
 IAtWgt=          12           1          12           1          12          12           1          12          12          12
 AtmWgt=  12.0000000   1.0078250  12.0000000   1.0078250  12.0000000  12.0000000   1.0078250  12.0000000  12.0000000  12.0000000
 NucSpn=           0           1           0           1           0           0           1           0           0           0
 AtZEff=   0.0000000   0.0000000   0.0000000   0.0000000   0.0000000   0.0000000   0.0000000   0.0000000   0.0000000   0.0000000
 NQMom=    0.0000000   0.0000000   0.0000000   0.0000000   0.0000000   0.0000000   0.0000000   0.0000000   0.0000000   0.0000000
 NMagM=    0.0000000   2.7928460   0.0000000   2.7928460   0.0000000   0.0000000   2.7928460   0.0000000   0.0000000   0.0000000

  Atom       121         122         123         124         125         126         127         128         129         130
 IAtWgt=          12           1           1           1          12           1           1           1          12          12
 AtmWgt=  12.0000000   1.0078250   1.0078250   1.0078250  12.0000000   1.0078250   1.0078250   1.0078250  12.0000000  12.0000000
 NucSpn=           0           1           1           1           0           1           1           1           0           0
 AtZEff=   0.0000000   0.0000000   0.0000000   0.0000000   0.0000000   0.0000000   0.0000000   0.0000000   0.0000000   0.0000000
 NQMom=    0.0000000   0.0000000   0.0000000   0.0000000   0.0000000   0.0000000   0.0000000   0.0000000   0.0000000   0.0000000
 NMagM=    0.0000000   2.7928460   2.7928460   2.7928460   0.0000000   2.7928460   2.7928460   2.7928460   0.0000000   0.0000000

  Atom       131         132         133         134         135         136         137         138         139         140
 IAtWgt=           1           1           1          12           1           1           1          12           1           1
 AtmWgt=   1.0078250   1.0078250   1.0078250  12.0000000   1.0078250   1.0078250   1.0078250  12.0000000   1.0078250   1.0078250
 NucSpn=           1           1           1           0           1           1           1           0           1           1
 AtZEff=   0.0000000   0.0000000   0.0000000   0.0000000   0.0000000   0.0000000   0.0000000   0.0000000   0.0000000   0.0000000
 NQMom=    0.0000000   0.0000000   0.0000000   0.0000000   0.0000000   0.0000000   0.0000000   0.0000000   0.0000000   0.0000000
 NMagM=    2.7928460   2.7928460   2.7928460   0.0000000   2.7928460   2.7928460   2.7928460   0.0000000   2.7928460   2.7928460

  Atom       141         142         143         144         145         146         147         148         149         150
 IAtWgt=           1          12          12          12           1           1           1          12           1           1
 AtmWgt=   1.0078250  12.0000000  12.0000000  12.0000000   1.0078250   1.0078250   1.0078250  12.0000000   1.0078250   1.0078250
 NucSpn=           1           0           0           0           1           1           1           0           1           1
 AtZEff=   0.0000000   0.0000000   0.0000000   0.0000000   0.0000000   0.0000000   0.0000000   0.0000000   0.0000000   0.0000000
 NQMom=    0.0000000   0.0000000   0.0000000   0.0000000   0.0000000   0.0000000   0.0000000   0.0000000   0.0000000   0.0000000
 NMagM=    2.7928460   0.0000000   0.0000000   0.0000000   2.7928460   2.7928460   2.7928460   0.0000000   2.7928460   2.7928460

  Atom       151         152         153         154         155         156         157         158         159         160
 IAtWgt=           1          12          12           1           1           1          12           1           1           1
 AtmWgt=   1.0078250  12.0000000  12.0000000   1.0078250   1.0078250   1.0078250  12.0000000   1.0078250   1.0078250   1.0078250
 NucSpn=           1           0           0           1           1           1           0           1           1           1
 AtZEff=   0.0000000   0.0000000   0.0000000   0.0000000   0.0000000   0.0000000   0.0000000   0.0000000   0.0000000   0.0000000
 NQMom=    0.0000000   0.0000000   0.0000000   0.0000000   0.0000000   0.0000000   0.0000000   0.0000000   0.0000000   0.0000000
 NMagM=    2.7928460   0.0000000   0.0000000   2.7928460   2.7928460   2.7928460   0.0000000   2.7928460   2.7928460   2.7928460

  Atom       161         162         163         164
 IAtWgt=          12           1           1           1
 AtmWgt=  12.0000000   1.0078250   1.0078250   1.0078250
 NucSpn=           0           1           1           1
 AtZEff=   0.0000000   0.0000000   0.0000000   0.0000000
 NQMom=    0.0000000   0.0000000   0.0000000   0.0000000
 NMagM=    0.0000000   2.7928460   2.7928460   2.7928460
 Leave Link  101 at Thu Jan  5 21:05:46 2012, MaxMem= 1073741824 cpu:       0.8
 (Enter /apps/gaussian/g09/g09/l202.exe)
 Stoichiometry    C76H84Si4
 Framework group  C1[X(C76H84Si4)]
 Deg. of freedom   486
 Full point group                 C1      NOp   1
 Largest Abelian subgroup         C1      NOp   1
 Largest concise Abelian subgroup C1      NOp   1
                         Standard orientation:                         
 ---------------------------------------------------------------------
 Center     Atomic      Atomic             Coordinates (Angstroms)
 Number     Number       Type             X           Y           Z
 ---------------------------------------------------------------------
      1         14           0       -2.180887    5.239915    1.277063
      2         14           0        7.770006   -0.491196    0.352269
      3          6           0        1.773714    3.284410    1.869089
      4          6           0        2.051143    2.282486    2.827933
      5          6           0        1.183703    2.020326    3.906288
      6          1           0        0.384226    2.526556    3.984294
      7          6           0        1.456609    1.051624    4.853651
      8          6           0        0.583202    0.780190    5.953508
      9          1           0       -0.215891    1.284261    6.049850
     10          6           0        0.873254   -0.183350    6.860979
     11          1           0        0.278713   -0.343260    7.585099
     12          6           0        2.059900   -0.957665    6.735652
     13          1           0        2.250498   -1.635021    7.373601
     14          6           0        2.919160   -0.735802    5.715498
     15          1           0        3.711603   -1.256885    5.652852
     16          6           0        2.659141    0.267707    4.725988
     17          6           0        3.512728    0.500835    3.664193
     18          1           0        4.299385   -0.025315    3.580456
     19          6           0        3.252729    1.494408    2.703236
     20          6           0        4.116668    1.710680    1.592773
     21          6           0        3.857423    2.741188    0.652511
     22          6           0        4.685132    2.975021   -0.458016
     23          1           0        5.455232    2.432187   -0.575495
     24          6           0        4.419771    3.968510   -1.390455
     25          6           0        5.227862    4.173894   -2.546135
     26          1           0        5.971228    3.604120   -2.703859
     27          6           0        4.955513    5.171769   -3.428118
     28          1           0        5.499542    5.283909   -4.197928
     29          6           0        3.854442    6.051183   -3.202926
     30          1           0        3.685692    6.760281   -3.811634
     31          6           0        3.052309    5.882051   -2.130037
     32          1           0        2.321275    6.474614   -1.997102
     33          6           0        3.279700    4.824508   -1.185257
     34          6           0        2.444261    4.600758   -0.104522
     35          1           0        1.688824    5.164020    0.021001
     36          6           0        2.680897    3.562079    0.814035
     37          6           0        0.513930    3.974281    1.880960
     38          6           0       -0.564134    4.517101    1.764700
     39          6           0       -3.317240    3.862824    0.757188
     40          1           0       -2.990514    3.464819   -0.076331
     41          1           0       -4.220404    4.219613    0.616772
     42          1           0       -3.343094    3.179091    1.458805
     43          6           0       -2.930864    6.154621    2.714677
     44          1           0       -3.001132    5.552040    3.483612
     45          1           0       -3.822855    6.475195    2.467338
     46          1           0       -2.361824    6.918107    2.947508
     47          6           0       -1.834646    6.409406   -0.167384
     48          6           0       -3.137556    7.100818   -0.589922
     49          1           0       -3.468715    7.652198    0.149839
     50          1           0       -3.807534    6.422598   -0.817251
     51          1           0       -2.967780    7.668805   -1.369598
     52          6           0       -0.814757    7.476368    0.244451
     53          1           0        0.021550    7.041786    0.512363
     54          1           0       -1.169792    7.994140    0.997225
     55          1           0       -0.644556    8.074924   -0.512435
     56          6           0       -1.279660    5.626260   -1.370317
     57          1           0       -1.074659    6.248709   -2.098776
     58          1           0       -1.948504    4.976298   -1.673968
     59          1           0       -0.463166    5.154043   -1.103859
     60          6           0        5.269818    0.884513    1.371888
     61          6           0        6.258663    0.245943    1.075533
     62          6           0        9.006763    0.878227    0.124624
     63          1           0        8.612496    1.585510   -0.428033
     64          1           0        9.806153    0.525333   -0.317913
     65          1           0        9.252128    1.245161    0.999818
     66          6           0        8.478214   -1.763702    1.503813
     67          1           0        8.625019   -1.360862    2.384810
     68          1           0        9.331777   -2.088407    1.146414
     69          1           0        7.852048   -2.513388    1.587731
     70          6           0        7.286411   -1.253518   -1.306285
     71          6           0        6.346750   -2.442656   -1.089102
     72          1           0        5.553686   -2.146627   -0.595855
     73          1           0        6.810633   -3.136400   -0.574159
     74          1           0        6.074353   -2.807989   -1.956506
     75          6           0        8.534090   -1.749936   -2.046996
     76          1           0        9.002814   -2.407183   -1.492460
     77          1           0        9.129501   -0.992646   -2.229181
     78          1           0        8.267686   -2.166433   -2.893227
     79          6           0        6.568648   -0.211625   -2.184550
     80          1           0        6.343702   -0.613556   -3.049732
     81          1           0        7.158050    0.558471   -2.325396
     82          1           0        5.748146    0.081729   -1.737184
     83         14           0       -7.896250    0.255921   -0.628655
     84         14           0        2.054689   -5.475159   -1.553439
     85          6           0       -3.941616   -1.699554   -0.036625
     86          6           0       -3.664220   -2.701502    0.922212
     87          6           0       -4.531626   -2.963642    2.000573
     88          1           0       -5.331116   -2.457413    2.078579
     89          6           0       -4.258730   -3.932353    2.947935
     90          6           0       -5.132165   -4.203798    4.047789
     91          1           0       -5.931242   -3.699720    4.144128
     92          6           0       -4.842047   -5.167288    4.955281
     93          1           0       -5.436645   -5.327244    5.679379
     94          6           0       -3.655486   -5.941613    4.829920
     95          1           0       -3.464844   -6.618942    5.467886
     96          6           0       -2.796196   -5.719725    3.809778
     97          1           0       -2.003764   -6.240829    3.747120
     98          6           0       -3.056198   -4.716269    2.820273
     99          6           0       -2.202570   -4.483104    1.758489
    100          1           0       -1.415924   -5.009280    1.674753
    101          6           0       -2.462619   -3.489565    0.797520
    102          6           0       -1.598682   -3.273298   -0.312944
    103          6           0       -1.857924   -2.242792   -1.253204
    104          6           0       -1.030218   -2.008954   -2.363735
    105          1           0       -0.260088   -2.551769   -2.481206
    106          6           0       -1.295529   -1.015433   -3.296155
    107          6           0       -0.487463   -0.810058   -4.451826
    108          1           0        0.255889   -1.379859   -4.609607
    109          6           0       -0.759832    0.187802   -5.333807
    110          1           0       -0.215822    0.299935   -6.103608
    111          6           0       -1.860912    1.067210   -5.108599
    112          1           0       -2.029639    1.776319   -5.717337
    113          6           0       -2.663002    0.898100   -4.035744
    114          1           0       -3.394080    1.490628   -3.902819
    115          6           0       -2.435603   -0.159434   -3.090955
    116          6           0       -3.271052   -0.383191   -2.010232
    117          1           0       -4.026517    0.180049   -1.884719
    118          6           0       -3.034472   -1.421921   -1.091688
    119          6           0       -5.201390   -1.009669   -0.024752
    120          6           0       -6.279487   -0.466887   -0.141022
    121          6           0       -9.032593   -1.121160   -1.148529
    122          1           0       -8.705850   -1.519147   -1.982041
    123          1           0       -9.935703   -0.764325   -1.288933
    124          1           0       -9.058435   -1.804882   -0.446905
    125          6           0       -8.646182    1.170668    0.808972
    126          1           0       -8.716487    0.568052    1.577893
    127          1           0       -9.538211    1.491211    0.561620
    128          1           0       -8.077176    1.934122    1.041787
    129          6           0       -7.549996    1.425418   -2.073106
    130          6           0       -8.852886    2.116856   -2.495631
    131          1           0       -9.184044    2.668238   -1.755867
    132          1           0       -9.522909    1.438598   -2.722972
    133          1           0       -8.683120    2.684834   -3.275311
    134          6           0       -6.530091    2.492404   -1.661256
    135          1           0       -5.693772    2.057826   -1.393350
    136          1           0       -6.885121    3.010179   -0.908484
    137          1           0       -6.359860    3.090981   -2.418142
    138          6           0       -6.995006    0.642281   -3.276034
    139          1           0       -6.789976    1.264756   -4.004484
    140          1           0       -7.663851   -0.007678   -3.579686
    141          1           0       -6.178487    0.170088   -3.009565
    142          6           0       -0.445494   -4.099435   -0.533817
    143          6           0        0.543336   -4.738044   -0.830171
    144          6           0        3.291401   -4.105735   -1.781051
    145          1           0        2.897183   -3.398397   -2.333774
    146          1           0        4.090785   -4.458633   -2.223635
    147          1           0        3.536807   -3.738824   -0.905884
    148          6           0        2.762855   -6.747632   -0.401915
    149          1           0        2.909678   -6.344834    0.479100
    150          1           0        3.616416   -7.072394   -0.759302
    151          1           0        2.136722   -7.497346   -0.317984
    152          6           0        1.571080   -6.237537   -3.212046
    153          6           0        0.631354   -7.426628   -2.994819
    154          1           0       -0.161652   -7.130537   -2.501574
    155          1           0        1.095259   -8.120363   -2.479882
    156          1           0        0.359095   -7.791970   -3.862239
    157          6           0        2.818762   -6.733900   -3.952661
    158          1           0        3.287503   -7.391197   -3.398177
    159          1           0        3.414145   -5.976604   -4.134881
    160          1           0        2.552343   -7.150428   -4.798922
    161          6           0        0.853341   -5.195546   -4.090275
    162          1           0        0.628405   -5.597501   -4.955453
    163          1           0        1.442742   -4.425551   -4.231144
    164          1           0        0.032806   -4.902260   -3.642939
 ---------------------------------------------------------------------
 Rotational constants (GHZ):      0.0209354      0.0161505      0.0131969
 Leave Link  202 at Thu Jan  5 21:05:46 2012, MaxMem= 1073741824 cpu:       0.1
 (Enter /apps/gaussian/g09/g09/l301.exe)
 Standard basis: 6-31G(d,p) (6D, 7F)
 Ernie: Thresh=  0.10000D-02 Tol=  0.10000D-05 Strict=F.
 There are  1636 symmetry adapted basis functions of A   symmetry.
 Integral buffers will be    131072 words long.
 Raffenetti 2 integral format.
 Two-electron integral symmetry is turned on.
  1636 basis functions,  2924 primitive gaussians,  1636 cartesian basis functions
   298 alpha electrons      298 beta electrons
       nuclear repulsion energy     13967.8126453503 Hartrees.
 IExCor=  402 DFT=T Ex+Corr=B3LYP ExCW=0 ScaHFX=  0.200000
 ScaDFX=  0.800000  0.720000  1.000000  0.810000 ScalE2=  1.000000  1.000000
 IRadAn=      0 IRanWt=     -1 IRanGd=            0 ICorTp=0
 NAtoms=  164 NActive=  164 NUniq=  164 SFac= 7.50D-01 NAtFMM=   80 NAOKFM=T Big=T
 Leave Link  301 at Thu Jan  5 21:05:46 2012, MaxMem= 1073741824 cpu:       0.7
 (Enter /apps/gaussian/g09/g09/l302.exe)
 NPDir=0 NMtPBC=     1 NCelOv=     1 NCel=       1 NClECP=     1 NCelD=      1
         NCelK=      1 NCelE2=     1 NClLst=     1 CellRange=     0.0.
 One-electron integrals computed using PRISM.
 NBasis=  1636 RedAO= T  NBF=  1636
 NBsUse=  1636 1.00D-06 NBFU=  1636
 Precomputing XC quadrature grid using
 IXCGrd= 2 IRadAn=           0 IRanWt=          -1 IRanGd=           0 AccXCQ= 1.00D-10.
 NRdTot=   10695 NPtTot=     1368528 NUsed=     1445538 NTot=     1445570
 NSgBfM=  1044  1065  1065  1073  1085 NAtAll=   164   164.
 Leave Link  302 at Thu Jan  5 21:06:08 2012, MaxMem= 1073741824 cpu:     173.1
 (Enter /apps/gaussian/g09/g09/l308.exe)
 Leave Link  308 at Thu Jan  5 21:06:09 2012, MaxMem= 1073741824 cpu:       7.9
 (Enter /apps/gaussian/g09/g09/l303.exe)
 DipDrv:  MaxL=1.
 Leave Link  303 at Thu Jan  5 21:06:11 2012, MaxMem= 1073741824 cpu:       5.0
 (Enter /apps/gaussian/g09/g09/l401.exe)
 Harris functional with IExCor=  402 diagonalized for initial guess.
 ExpMin= 7.78D-02 ExpMax= 1.61D+04 ExpMxC= 2.43D+03 IAcc=2 IRadAn=         0 AccDes= 0.00D+00
 HarFok:  IExCor=  402 AccDes= 0.00D+00 IRadAn=         0 IDoV= 1
 ScaDFX=  1.000000  1.000000  1.000000  1.000000
 FoFCou: FMM=F IPFlag=           0 FMFlag=      100000 FMFlg1=        2001
         NFxFlg=           0 DoJE=T BraDBF=F KetDBF=T FulRan=T
         Omega=  0.000000  0.000000  1.000000  0.000000  0.000000 ICntrl=     500 IOpCl=  0
         NMat0=    1 NMatS0=    1 NMatT0=    0 NMatD0=    1 NMtDS0=    0 NMtDT0=    0
         I1Cent=           4 NGrid=           0.
 Petite list used in FoFCou.
 Harris En= -4105.75283815224    
 Initial guess orbital symmetries:
       Occupied  (A) (A) (A) (A) (A) (A) (A) (A) (A) (A) (A) (A)
                 (A) (A) (A) (A) (A) (A) (A) (A) (A) (A) (A) (A)
                 (A) (A) (A) (A) (A) (A) (A) (A) (A) (A) (A) (A)
                 (A) (A) (A) (A) (A) (A) (A) (A) (A) (A) (A) (A)
                 (A) (A) (A) (A) (A) (A) (A) (A) (A) (A) (A) (A)
                 (A) (A) (A) (A) (A) (A) (A) (A) (A) (A) (A) (A)
                 (A) (A) (A) (A) (A) (A) (A) (A) (A) (A) (A) (A)
                 (A) (A) (A) (A) (A) (A) (A) (A) (A) (A) (A) (A)
                 (A) (A) (A) (A) (A) (A) (A) (A) (A) (A) (A) (A)
                 (A) (A) (A) (A) (A) (A) (A) (A) (A) (A) (A) (A)
                 (A) (A) (A) (A) (A) (A) (A) (A) (A) (A) (A) (A)
                 (A) (A) (A) (A) (A) (A) (A) (A) (A) (A) (A) (A)
                 (A) (A) (A) (A) (A) (A) (A) (A) (A) (A) (A) (A)
                 (A) (A) (A) (A) (A) (A) (A) (A) (A) (A) (A) (A)
                 (A) (A) (A) (A) (A) (A) (A) (A) (A) (A) (A) (A)
                 (A) (A) (A) (A) (A) (A) (A) (A) (A) (A) (A) (A)
                 (A) (A) (A) (A) (A) (A) (A) (A) (A) (A) (A) (A)
                 (A) (A) (A) (A) (A) (A) (A) (A) (A) (A) (A) (A)
                 (A) (A) (A) (A) (A) (A) (A) (A) (A) (A) (A) (A)
                 (A) (A) (A) (A) (A) (A) (A) (A) (A) (A) (A) (A)
                 (A) (A) (A) (A) (A) (A) (A) (A) (A) (A) (A) (A)
                 (A) (A) (A) (A) (A) (A) (A) (A) (A) (A) (A) (A)
                 (A) (A) (A) (A) (A) (A) (A) (A) (A) (A) (A) (A)
                 (A) (A) (A) (A) (A) (A) (A) (A) (A) (A) (A) (A)
                 (A) (A) (A) (A) (A) (A) (A) (A) (A) (A)
       Virtual   (A) (A) (A) (A) (A) (A) (A) (A) (A) (A) (A) (A)
                 (A) (A) (A) (A) (A) (A) (A) (A) (A) (A) (A) (A)
                 (A) (A) (A) (A) (A) (A) (A) (A) (A) (A) (A) (A)
                 (A) (A) (A) (A) (A) (A) (A) (A) (A) (A) (A) (A)
                 (A) (A) (A) (A) (A) (A) (A) (A) (A) (A) (A) (A)
                 (A) (A) (A) (A) (A) (A) (A) (A) (A) (A) (A) (A)
                 (A) (A) (A) (A) (A) (A) (A) (A) (A) (A) (A) (A)
                 (A) (A) (A) (A) (A) (A) (A) (A) (A) (A) (A) (A)
                 (A) (A) (A) (A) (A) (A) (A) (A) (A) (A) (A) (A)
                 (A) (A) (A) (A) (A) (A) (A) (A) (A) (A) (A) (A)
                 (A) (A) (A) (A) (A) (A) (A) (A) (A) (A) (A) (A)
                 (A) (A) (A) (A) (A) (A) (A) (A) (A) (A) (A) (A)
                 (A) (A) (A) (A) (A) (A) (A) (A) (A) (A) (A) (A)
                 (A) (A) (A) (A) (A) (A) (A) (A) (A) (A) (A) (A)
                 (A) (A) (A) (A) (A) (A) (A) (A) (A) (A) (A) (A)
                 (A) (A) (A) (A) (A) (A) (A) (A) (A) (A) (A) (A)
                 (A) (A) (A) (A) (A) (A) (A) (A) (A) (A) (A) (A)
                 (A) (A) (A) (A) (A) (A) (A) (A) (A) (A) (A) (A)
                 (A) (A) (A) (A) (A) (A) (A) (A) (A) (A) (A) (A)
                 (A) (A) (A) (A) (A) (A) (A) (A) (A) (A) (A) (A)
                 (A) (A) (A) (A) (A) (A) (A) (A) (A) (A) (A) (A)
                 (A) (A) (A) (A) (A) (A) (A) (A) (A) (A) (A) (A)
                 (A) (A) (A) (A) (A) (A) (A) (A) (A) (A) (A) (A)
                 (A) (A) (A) (A) (A) (A) (A) (A) (A) (A) (A) (A)
                 (A) (A) (A) (A) (A) (A) (A) (A) (A) (A) (A) (A)
                 (A) (A) (A) (A) (A) (A) (A) (A) (A) (A) (A) (A)
                 (A) (A) (A) (A) (A) (A) (A) (A) (A) (A) (A) (A)
                 (A) (A) (A) (A) (A) (A) (A) (A) (A) (A) (A) (A)
                 (A) (A) (A) (A) (A) (A) (A) (A) (A) (A) (A) (A)
                 (A) (A) (A) (A) (A) (A) (A) (A) (A) (A) (A) (A)
                 (A) (A) (A) (A) (A) (A) (A) (A) (A) (A) (A) (A)
                 (A) (A) (A) (A) (A) (A) (A) (A) (A) (A) (A) (A)
                 (A) (A) (A) (A) (A) (A) (A) (A) (A) (A) (A) (A)
                 (A) (A) (A) (A) (A) (A) (A) (A) (A) (A) (A) (A)
                 (A) (A) (A) (A) (A) (A) (A) (A) (A) (A) (A) (A)
                 (A) (A) (A) (A) (A) (A) (A) (A) (A) (A) (A) (A)
                 (A) (A) (A) (A) (A) (A) (A) (A) (A) (A) (A) (A)
                 (A) (A) (A) (A) (A) (A) (A) (A) (A) (A) (A) (A)
                 (A) (A) (A) (A) (A) (A) (A) (A) (A) (A) (A) (A)
                 (A) (A) (A) (A) (A) (A) (A) (A) (A) (A) (A) (A)
                 (A) (A) (A) (A) (A) (A) (A) (A) (A) (A) (A) (A)
                 (A) (A) (A) (A) (A) (A) (A) (A) (A) (A) (A) (A)
                 (A) (A) (A) (A) (A) (A) (A) (A) (A) (A) (A) (A)
                 (A) (A) (A) (A) (A) (A) (A) (A) (A) (A) (A) (A)
                 (A) (A) (A) (A) (A) (A) (A) (A) (A) (A) (A) (A)
                 (A) (A) (A) (A) (A) (A) (A) (A) (A) (A) (A) (A)
                 (A) (A) (A) (A) (A) (A) (A) (A) (A) (A) (A) (A)
                 (A) (A) (A) (A) (A) (A) (A) (A) (A) (A) (A) (A)
                 (A) (A) (A) (A) (A) (A) (A) (A) (A) (A) (A) (A)
                 (A) (A) (A) (A) (A) (A) (A) (A) (A) (A) (A) (A)
                 (A) (A) (A) (A) (A) (A) (A) (A) (A) (A) (A) (A)
                 (A) (A) (A) (A) (A) (A) (A) (A) (A) (A) (A) (A)
                 (A) (A) (A) (A) (A) (A) (A) (A) (A) (A) (A) (A)
                 (A) (A) (A) (A) (A) (A) (A) (A) (A) (A) (A) (A)
                 (A) (A) (A) (A) (A) (A) (A) (A) (A) (A) (A) (A)
                 (A) (A) (A) (A) (A) (A) (A) (A) (A) (A) (A) (A)
                 (A) (A) (A) (A) (A) (A) (A) (A) (A) (A) (A) (A)
                 (A) (A) (A) (A) (A) (A) (A) (A) (A) (A) (A) (A)
                 (A) (A) (A) (A) (A) (A) (A) (A) (A) (A) (A) (A)
                 (A) (A) (A) (A) (A) (A) (A) (A) (A) (A) (A) (A)
                 (A) (A) (A) (A) (A) (A) (A) (A) (A) (A) (A) (A)
                 (A) (A) (A) (A) (A) (A) (A) (A) (A) (A) (A) (A)
                 (A) (A) (A) (A) (A) (A) (A) (A) (A) (A) (A) (A)
                 (A) (A) (A) (A) (A) (A) (A) (A) (A) (A) (A) (A)
                 (A) (A) (A) (A) (A) (A) (A) (A) (A) (A) (A) (A)
                 (A) (A) (A) (A) (A) (A) (A) (A) (A) (A) (A) (A)
                 (A) (A) (A) (A) (A) (A) (A) (A) (A) (A) (A) (A)
                 (A) (A) (A) (A) (A) (A) (A) (A) (A) (A) (A) (A)
                 (A) (A) (A) (A) (A) (A) (A) (A) (A) (A) (A) (A)
                 (A) (A) (A) (A) (A) (A) (A) (A) (A) (A) (A) (A)
                 (A) (A) (A) (A) (A) (A) (A) (A) (A) (A) (A) (A)
                 (A) (A) (A) (A) (A) (A) (A) (A) (A) (A) (A) (A)
                 (A) (A) (A) (A) (A) (A) (A) (A) (A) (A) (A) (A)
                 (A) (A) (A) (A) (A) (A) (A) (A) (A) (A) (A) (A)
                 (A) (A) (A) (A) (A) (A) (A) (A) (A) (A) (A) (A)
                 (A) (A) (A) (A) (A) (A) (A) (A) (A) (A) (A) (A)
                 (A) (A) (A) (A) (A) (A) (A) (A) (A) (A) (A) (A)
                 (A) (A) (A) (A) (A) (A) (A) (A) (A) (A) (A) (A)
                 (A) (A) (A) (A) (A) (A) (A) (A) (A) (A) (A) (A)
                 (A) (A) (A) (A) (A) (A) (A) (A) (A) (A) (A) (A)
                 (A) (A) (A) (A) (A) (A) (A) (A) (A) (A) (A) (A)
                 (A) (A) (A) (A) (A) (A) (A) (A) (A) (A) (A) (A)
                 (A) (A) (A) (A) (A) (A) (A) (A) (A) (A) (A) (A)
                 (A) (A) (A) (A) (A) (A) (A) (A) (A) (A) (A) (A)
                 (A) (A) (A) (A) (A) (A) (A) (A) (A) (A) (A) (A)
                 (A) (A) (A) (A) (A) (A) (A) (A) (A) (A) (A) (A)
                 (A) (A) (A) (A) (A) (A) (A) (A) (A) (A) (A) (A)
                 (A) (A) (A) (A) (A) (A) (A) (A) (A) (A) (A) (A)
                 (A) (A) (A) (A) (A) (A) (A) (A) (A) (A) (A) (A)
                 (A) (A) (A) (A) (A) (A) (A) (A) (A) (A) (A) (A)
                 (A) (A) (A) (A) (A) (A) (A) (A) (A) (A) (A) (A)
                 (A) (A) (A) (A) (A) (A) (A) (A) (A) (A) (A) (A)
                 (A) (A) (A) (A) (A) (A) (A) (A) (A) (A) (A) (A)
                 (A) (A) (A) (A) (A) (A) (A) (A) (A) (A) (A) (A)
                 (A) (A) (A) (A) (A) (A) (A) (A) (A) (A) (A) (A)
                 (A) (A) (A) (A) (A) (A) (A) (A) (A) (A) (A) (A)
                 (A) (A) (A) (A) (A) (A) (A) (A) (A) (A) (A) (A)
                 (A) (A) (A) (A) (A) (A) (A) (A) (A) (A) (A) (A)
                 (A) (A) (A) (A) (A) (A) (A) (A) (A) (A) (A) (A)
                 (A) (A) (A) (A) (A) (A) (A) (A) (A) (A) (A) (A)
                 (A) (A) (A) (A) (A) (A) (A) (A) (A) (A) (A) (A)
                 (A) (A) (A) (A) (A) (A) (A) (A) (A) (A) (A) (A)
                 (A) (A) (A) (A) (A) (A) (A) (A) (A) (A) (A) (A)
                 (A) (A) (A) (A) (A) (A) (A) (A) (A) (A) (A) (A)
                 (A) (A) (A) (A) (A) (A) (A) (A) (A) (A) (A) (A)
                 (A) (A) (A) (A) (A) (A) (A) (A) (A) (A) (A) (A)
                 (A) (A) (A) (A) (A) (A) (A) (A) (A) (A) (A) (A)
                 (A) (A) (A) (A) (A) (A) (A) (A) (A) (A) (A) (A)
                 (A) (A) (A) (A) (A) (A) (A) (A) (A) (A) (A) (A)
                 (A) (A) (A) (A) (A) (A) (A) (A) (A) (A) (A) (A)
                 (A) (A) (A) (A) (A) (A) (A) (A) (A) (A) (A) (A)
                 (A) (A) (A) (A) (A) (A)
 The electronic state of the initial guess is 1-A.
 Leave Link  401 at Thu Jan  5 21:06:40 2012, MaxMem= 1073741824 cpu:     227.5
 (Enter /apps/gaussian/g09/g09/l502.exe)
 Closed shell SCF:
 Requested convergence on RMS density matrix=1.00D-08 within 128 cycles.
 Requested convergence on MAX density matrix=1.00D-06.
 Requested convergence on             energy=1.00D-06.
 No special actions if energy rises.
 Using DIIS extrapolation, IDIIS=  1040.
 Integral symmetry usage will be decided dynamically.
      1444049 words used for storage of precomputed grid.
 IEnd=     9517127 IEndB=     9517127 NGot=  1073741824 MDV=  1066919470
 LenX=  1066919470 LenY=  1064241338
 Fock matrices will be formed incrementally for  20 cycles.
 Integral accuracy reduced to 1.0D-05 until final iterations.

 Cycle   1  Pass 0  IDiag  1:
 FoFCou: FMM=T IPFlag=           0 FMFlag=      100000 FMFlg1=        2001
         NFxFlg=           0 DoJE=F BraDBF=F KetDBF=F FulRan=T
         Omega=  0.000000  0.000000  1.000000  0.000000  0.000000 ICntrl=       0 IOpCl=  0
         NMat0=    1 NMatS0=    1 NMatT0=    0 NMatD0=    1 NMtDS0=    0 NMtDT0=    0
         I1Cent=           0 NGrid=           0.
 Symmetry not used in FoFCou.
 FMM levels:  10  Number of levels for PrismC:   9
 E= -4100.20609227747    
 DIIS: error= 3.37D-02 at cycle   1 NSaved=   1.
 NSaved= 1 IEnMin= 1 EnMin= -4100.20609227747     IErMin= 1 ErrMin= 3.37D-02
 ErrMax= 3.37D-02 EMaxC= 1.00D-01 BMatC= 3.44D+00 BMatP= 3.44D+00
 IDIUse=3 WtCom= 6.63D-01 WtEn= 3.37D-01
 Coeff-Com:  0.100D+01
 Coeff-En:   0.100D+01
 Coeff:      0.100D+01
 Gap=     0.081 Goal=   None    Shift=    0.000
 GapD=    0.081 DampG=0.500 DampE=0.500 DampFc=0.2500 IDamp=-1.
 Damping current iteration by 2.50D-01
 RMSDP=2.74D-03 MaxDP=2.07D-01              OVMax= 2.70D-01

 Cycle   2  Pass 0  IDiag  1:
 RMSU=  4.60D-04    CP:  9.74D-01
 E= -4101.50136975364     Delta-E=       -1.295277476172 Rises=F Damp=T
 DIIS: error= 1.74D-02 at cycle   2 NSaved=   2.
 NSaved= 2 IEnMin= 2 EnMin= -4101.50136975364     IErMin= 2 ErrMin= 1.74D-02
 ErrMax= 1.74D-02 EMaxC= 1.00D-01 BMatC= 9.31D-01 BMatP= 3.44D+00
 IDIUse=3 WtCom= 8.26D-01 WtEn= 1.74D-01
 Coeff-Com: -0.923D+00 0.192D+01
 Coeff-En:   0.000D+00 0.100D+01
 Coeff:     -0.762D+00 0.176D+01
 Gap=     0.099 Goal=   None    Shift=    0.000
 RMSDP=1.27D-03 MaxDP=1.11D-01 DE=-1.30D+00 OVMax= 2.60D-01

 Cycle   3  Pass 0  IDiag  1:
 RMSU=  6.29D-04    CP:  9.16D-01  2.17D+00
 E= -4103.31558576907     Delta-E=       -1.814216015431 Rises=F Damp=F
 DIIS: error= 2.01D-02 at cycle   3 NSaved=   3.
 NSaved= 3 IEnMin= 3 EnMin= -4103.31558576907     IErMin= 2 ErrMin= 1.74D-02
 ErrMax= 2.01D-02 EMaxC= 1.00D-01 BMatC= 4.23D-01 BMatP= 9.31D-01
 IDIUse=3 WtCom= 7.99D-01 WtEn= 2.01D-01
 Coeff-Com: -0.585D+00 0.121D+01 0.376D+00
 Coeff-En:   0.000D+00 0.000D+00 0.100D+01
 Coeff:     -0.468D+00 0.966D+00 0.502D+00
 Gap=     0.086 Goal=   None    Shift=    0.000
 RMSDP=7.54D-04 MaxDP=7.96D-02 DE=-1.81D+00 OVMax= 1.78D-01

 Cycle   4  Pass 0  IDiag  1:
 RMSU=  3.67D-04    CP:  9.18D-01  2.27D+00  3.90D-01
 E= -4103.50465931389     Delta-E=       -0.189073544818 Rises=F Damp=F
 DIIS: error= 1.33D-02 at cycle   4 NSaved=   4.
 NSaved= 4 IEnMin= 4 EnMin= -4103.50465931389     IErMin= 4 ErrMin= 1.33D-02
 ErrMax= 1.33D-02 EMaxC= 1.00D-01 BMatC= 2.78D-01 BMatP= 4.23D-01
 IDIUse=3 WtCom= 8.67D-01 WtEn= 1.33D-01
 Coeff-Com: -0.861D-01 0.223D+00 0.415D+00 0.449D+00
 Coeff-En:   0.000D+00 0.000D+00 0.418D+00 0.582D+00
 Coeff:     -0.746D-01 0.193D+00 0.415D+00 0.467D+00
 Gap=     0.073 Goal=   None    Shift=    0.000
 RMSDP=3.38D-04 MaxDP=3.99D-02 DE=-1.89D-01 OVMax= 8.66D-02

 Cycle   5  Pass 0  IDiag  1:
 RMSU=  7.65D-05    CP:  9.20D-01  2.15D+00  6.20D-01  5.48D-01
 E= -4103.81743811929     Delta-E=       -0.312778805397 Rises=F Damp=F
 DIIS: error= 1.06D-03 at cycle   5 NSaved=   5.
 NSaved= 5 IEnMin= 5 EnMin= -4103.81743811929     IErMin= 5 ErrMin= 1.06D-03
 ErrMax= 1.06D-03 EMaxC= 1.00D-01 BMatC= 3.61D-03 BMatP= 2.78D-01
 IDIUse=3 WtCom= 9.89D-01 WtEn= 1.06D-02
 Coeff-Com:  0.116D-01-0.479D-02 0.158D+00 0.216D+00 0.619D+00
 Coeff-En:   0.000D+00 0.000D+00 0.000D+00 0.000D+00 0.100D+01
 Coeff:      0.115D-01-0.474D-02 0.157D+00 0.214D+00 0.623D+00
 Gap=     0.071 Goal=   None    Shift=    0.000
 RMSDP=7.56D-05 MaxDP=9.43D-03 DE=-3.13D-01 OVMax= 3.97D-02

 Cycle   6  Pass 0  IDiag  1:
 RMSU=  3.80D-05    CP:  9.20D-01  2.16D+00  6.36D-01  5.50D-01  5.31D-01
 E= -4103.81969037348     Delta-E=       -0.002252254195 Rises=F Damp=F
 DIIS: error= 9.71D-04 at cycle   6 NSaved=   6.
 NSaved= 6 IEnMin= 6 EnMin= -4103.81969037348     IErMin= 6 ErrMin= 9.71D-04
 ErrMax= 9.71D-04 EMaxC= 1.00D-01 BMatC= 1.33D-03 BMatP= 3.61D-03
 IDIUse=3 WtCom= 9.90D-01 WtEn= 9.71D-03
 Coeff-Com:  0.131D-01-0.206D-01 0.513D-01 0.806D-01 0.406D+00 0.470D+00
 Coeff-En:   0.000D+00 0.000D+00 0.000D+00 0.000D+00 0.307D+00 0.693D+00
 Coeff:      0.130D-01-0.204D-01 0.508D-01 0.798D-01 0.405D+00 0.472D+00
 Gap=     0.071 Goal=   None    Shift=    0.000
 RMSDP=4.17D-05 MaxDP=4.43D-03 DE=-2.25D-03 OVMax= 3.94D-02

 Cycle   7  Pass 0  IDiag  1:
 RMSU=  1.91D-05    CP:  9.20D-01  2.16D+00  6.33D-01  5.54D-01  6.58D-01
                    CP:  4.72D-01
 E= -4103.82079291220     Delta-E=       -0.001102538718 Rises=F Damp=F
 DIIS: error= 5.69D-04 at cycle   7 NSaved=   7.
 NSaved= 7 IEnMin= 7 EnMin= -4103.82079291220     IErMin= 7 ErrMin= 5.69D-04
 ErrMax= 5.69D-04 EMaxC= 1.00D-01 BMatC= 4.13D-04 BMatP= 1.33D-03
 IDIUse=3 WtCom= 9.94D-01 WtEn= 5.69D-03
 Coeff-Com:  0.626D-02-0.114D-01 0.130D-01 0.250D-01 0.206D+00 0.366D+00
 Coeff-Com:  0.396D+00
 Coeff-En:   0.000D+00 0.000D+00 0.000D+00 0.000D+00 0.000D+00 0.275D+00
 Coeff-En:   0.725D+00
 Coeff:      0.623D-02-0.113D-01 0.129D-01 0.249D-01 0.205D+00 0.365D+00
 Coeff:      0.397D+00
 Gap=     0.071 Goal=   None    Shift=    0.000
 RMSDP=2.01D-05 MaxDP=2.34D-03 DE=-1.10D-03 OVMax= 2.08D-02

 Cycle   8  Pass 0  IDiag  1:
 RMSU=  6.09D-06    CP:  9.20D-01  2.16D+00  6.32D-01  5.57D-01  6.60D-01
                    CP:  5.92D-01  3.76D-01
 E= -4103.82124938643     Delta-E=       -0.000456474227 Rises=F Damp=F
 DIIS: error= 1.43D-04 at cycle   8 NSaved=   8.
 NSaved= 8 IEnMin= 8 EnMin= -4103.82124938643     IErMin= 8 ErrMin= 1.43D-04
 ErrMax= 1.43D-04 EMaxC= 1.00D-01 BMatC= 4.61D-05 BMatP= 4.13D-04
 IDIUse=3 WtCom= 9.99D-01 WtEn= 1.43D-03
 Coeff-Com:  0.172D-02-0.354D-02 0.217D-02 0.623D-02 0.872D-01 0.195D+00
 Coeff-Com:  0.285D+00 0.426D+00
 Coeff-En:   0.000D+00 0.000D+00 0.000D+00 0.000D+00 0.000D+00 0.000D+00
 Coeff-En:   0.997D-01 0.900D+00
 Coeff:      0.172D-02-0.354D-02 0.217D-02 0.622D-02 0.871D-01 0.195D+00
 Coeff:      0.285D+00 0.427D+00
 Gap=     0.071 Goal=   None    Shift=    0.000
 RMSDP=6.08D-06 MaxDP=7.53D-04 DE=-4.56D-04 OVMax= 4.74D-03

 Initial convergence to 1.0D-05 achieved.  Increase integral accuracy.
 Cycle   9  Pass 1  IDiag  1:
 E= -4103.82019145323     Delta-E=        0.001057933201 Rises=F Damp=F
 DIIS: error= 2.73D-04 at cycle   1 NSaved=   1.
 NSaved= 1 IEnMin= 1 EnMin= -4103.82019145323     IErMin= 1 ErrMin= 2.73D-04
 ErrMax= 2.73D-04 EMaxC= 1.00D-01 BMatC= 2.42D-05 BMatP= 2.42D-05
 IDIUse=3 WtCom= 9.97D-01 WtEn= 2.73D-03
 Coeff-Com:  0.100D+01
 Coeff-En:   0.100D+01
 Coeff:      0.100D+01
 Gap=     0.071 Goal=   None    Shift=    0.000
 RMSDP=6.08D-06 MaxDP=7.53D-04 DE= 1.06D-03 OVMax= 2.24D-03

 Cycle  10  Pass 1  IDiag  1:
 RMSU=  6.84D-05    CP:  1.00D+00
 E= -4103.82019760453     Delta-E=       -0.000006151298 Rises=F Damp=F
 DIIS: error= 7.82D-05 at cycle   2 NSaved=   2.
 NSaved= 2 IEnMin= 2 EnMin= -4103.82019760453     IErMin= 2 ErrMin= 7.82D-05
 ErrMax= 7.82D-05 EMaxC= 1.00D-01 BMatC= 1.34D-05 BMatP= 2.42D-05
 IDIUse=1 WtCom= 1.00D+00 WtEn= 0.00D+00
 Coeff-Com:  0.390D+00 0.610D+00
 Coeff:      0.390D+00 0.610D+00
 Gap=     0.071 Goal=   None    Shift=    0.000
 RMSDP=6.00D-06 MaxDP=7.47D-04 DE=-6.15D-06 OVMax= 4.54D-03

 Cycle  11  Pass 1  IDiag  1:
 RMSU=  4.23D-06    CP:  1.00D+00  1.00D+00
 E= -4103.82018825082     Delta-E=        0.000009353702 Rises=F Damp=F
 DIIS: error= 1.28D-04 at cycle   3 NSaved=   3.
 NSaved= 3 IEnMin= 2 EnMin= -4103.82019760453     IErMin= 2 ErrMin= 7.82D-05
 ErrMax= 1.28D-04 EMaxC= 1.00D-01 BMatC= 2.04D-05 BMatP= 1.34D-05
 IDIUse=3 WtCom= 4.69D-01 WtEn= 5.31D-01
 Coeff-Com:  0.397D-01 0.539D+00 0.422D+00
 Coeff-En:   0.000D+00 0.584D+00 0.416D+00
 Coeff:      0.186D-01 0.562D+00 0.419D+00
 Gap=     0.071 Goal=   None    Shift=    0.000
 RMSDP=3.94D-06 MaxDP=4.20D-04 DE= 9.35D-06 OVMax= 3.55D-03

 Cycle  12  Pass 1  IDiag  1:
 RMSU=  1.07D-06    CP:  1.00D+00  1.01D+00  3.96D-01
 E= -4103.82021066850     Delta-E=       -0.000022417677 Rises=F Damp=F
 DIIS: error= 3.26D-05 at cycle   4 NSaved=   4.
 NSaved= 4 IEnMin= 4 EnMin= -4103.82021066850     IErMin= 4 ErrMin= 3.26D-05
 ErrMax= 3.26D-05 EMaxC= 1.00D-01 BMatC= 1.93D-06 BMatP= 1.34D-05
 IDIUse=1 WtCom= 1.00D+00 WtEn= 0.00D+00
 Coeff-Com: -0.269D-02 0.364D+00 0.300D+00 0.338D+00
 Coeff:     -0.269D-02 0.364D+00 0.300D+00 0.338D+00
 Gap=     0.071 Goal=   None    Shift=    0.000
 RMSDP=1.09D-06 MaxDP=1.07D-04 DE=-2.24D-05 OVMax= 8.21D-04

 Cycle  13  Pass 1  IDiag  1:
 RMSU=  2.28D-07    CP:  1.00D+00  1.01D+00  4.39D-01  3.31D-01
 E= -4103.82021284478     Delta-E=       -0.000002176275 Rises=F Damp=F
 DIIS: error= 4.57D-06 at cycle   5 NSaved=   5.
 NSaved= 5 IEnMin= 5 EnMin= -4103.82021284478     IErMin= 5 ErrMin= 4.57D-06
 ErrMax= 4.57D-06 EMaxC= 1.00D-01 BMatC= 3.69D-08 BMatP= 1.93D-06
 IDIUse=1 WtCom= 1.00D+00 WtEn= 0.00D+00
 Coeff-Com: -0.297D-02 0.206D+00 0.171D+00 0.211D+00 0.415D+00
 Coeff:     -0.297D-02 0.206D+00 0.171D+00 0.211D+00 0.415D+00
 Gap=     0.071 Goal=   None    Shift=    0.000
 RMSDP=1.63D-07 MaxDP=2.37D-05 DE=-2.18D-06 OVMax= 7.66D-05

 Cycle  14  Pass 1  IDiag  1:
 RMSU=  7.29D-08    CP:  1.00D+00  1.01D+00  4.36D-01  3.62D-01  6.42D-01
 E= -4103.82021288520     Delta-E=       -0.000000040425 Rises=F Damp=F
 DIIS: error= 6.48D-07 at cycle   6 NSaved=   6.
 NSaved= 6 IEnMin= 6 EnMin= -4103.82021288520     IErMin= 6 ErrMin= 6.48D-07
 ErrMax= 6.48D-07 EMaxC= 1.00D-01 BMatC= 1.74D-09 BMatP= 3.69D-08
 IDIUse=1 WtCom= 1.00D+00 WtEn= 0.00D+00
 Coeff-Com: -0.136D-02 0.805D-01 0.675D-01 0.865D-01 0.228D+00 0.539D+00
 Coeff:     -0.136D-02 0.805D-01 0.675D-01 0.865D-01 0.228D+00 0.539D+00
 Gap=     0.071 Goal=   None    Shift=    0.000
 RMSDP=4.37D-08 MaxDP=5.27D-06 DE=-4.04D-08 OVMax= 2.42D-05

 Cycle  15  Pass 1  IDiag  1:
 RMSU=  2.83D-08    CP:  1.00D+00  1.01D+00  4.38D-01  3.62D-01  6.50D-01
                    CP:  8.63D-01
 E= -4103.82021288605     Delta-E=       -0.000000000851 Rises=F Damp=F
 DIIS: error= 6.55D-07 at cycle   7 NSaved=   7.
 NSaved= 7 IEnMin= 7 EnMin= -4103.82021288605     IErMin= 6 ErrMin= 6.48D-07
 ErrMax= 6.55D-07 EMaxC= 1.00D-01 BMatC= 8.18D-10 BMatP= 1.74D-09
 IDIUse=1 WtCom= 1.00D+00 WtEn= 0.00D+00
 Coeff-Com: -0.558D-03 0.288D-01 0.244D-01 0.324D-01 0.106D+00 0.412D+00
 Coeff-Com:  0.397D+00
 Coeff:     -0.558D-03 0.288D-01 0.244D-01 0.324D-01 0.106D+00 0.412D+00
 Coeff:      0.397D+00
 Gap=     0.071 Goal=   None    Shift=    0.000
 RMSDP=2.45D-08 MaxDP=2.44D-06 DE=-8.51D-10 OVMax= 1.85D-05

 Cycle  16  Pass 1  IDiag  1:
 RMSU=  1.07D-08    CP:  1.00D+00  1.01D+00  4.37D-01  3.61D-01  6.63D-01
                    CP:  8.88D-01  5.44D-01
 E= -4103.82021288692     Delta-E=       -0.000000000866 Rises=F Damp=F
 DIIS: error= 2.40D-07 at cycle   8 NSaved=   8.
 NSaved= 8 IEnMin= 8 EnMin= -4103.82021288692     IErMin= 8 ErrMin= 2.40D-07
 ErrMax= 2.40D-07 EMaxC= 1.00D-01 BMatC= 6.01D-11 BMatP= 8.18D-10
 IDIUse=1 WtCom= 1.00D+00 WtEn= 0.00D+00
 Coeff-Com: -0.132D-03 0.496D-02 0.434D-02 0.622D-02 0.301D-01 0.172D+00
 Coeff-Com:  0.251D+00 0.531D+00
 Coeff:     -0.132D-03 0.496D-02 0.434D-02 0.622D-02 0.301D-01 0.172D+00
 Coeff:      0.251D+00 0.531D+00
 Gap=     0.071 Goal=   None    Shift=    0.000
 RMSDP=1.00D-08 MaxDP=8.97D-07 DE=-8.66D-10 OVMax= 8.82D-06

 Cycle  17  Pass 1  IDiag  1:
 RMSU=  4.77D-09    CP:  1.00D+00  1.01D+00  4.37D-01  3.62D-01  6.65D-01
                    CP:  8.95D-01  6.17D-01  5.60D-01
 E= -4103.82021288708     Delta-E=       -0.000000000160 Rises=F Damp=F
 DIIS: error= 1.51D-07 at cycle   9 NSaved=   9.
 NSaved= 9 IEnMin= 9 EnMin= -4103.82021288708     IErMin= 9 ErrMin= 1.51D-07
 ErrMax= 1.51D-07 EMaxC= 1.00D-01 BMatC= 2.30D-11 BMatP= 6.01D-11
 IDIUse=1 WtCom= 1.00D+00 WtEn= 0.00D+00
 Coeff-Com:  0.860D-05-0.194D-02-0.152D-02-0.168D-02 0.243D-02 0.530D-01
 Coeff-Com:  0.116D+00 0.410D+00 0.423D+00
 Coeff:      0.860D-05-0.194D-02-0.152D-02-0.168D-02 0.243D-02 0.530D-01
 Coeff:      0.116D+00 0.410D+00 0.423D+00
 Gap=     0.071 Goal=   None    Shift=    0.000
 RMSDP=4.78D-09 MaxDP=4.37D-07 DE=-1.60D-10 OVMax= 3.98D-06

 SCF Done:  E(RB3LYP) =  -4103.82021289     A.U. after   17 cycles
             Convg  =    0.4785D-08             -V/T =  2.0036
 KE= 4.089208513732D+03 PE=-3.752268637484D+04 EE= 1.536184500287D+04
 Leave Link  502 at Thu Jan  5 21:26:27 2012, MaxMem= 1073741824 cpu:    9493.3
 (Enter /apps/gaussian/g09/g09/l801.exe)
 ExpMin= 7.78D-02 ExpMax= 1.61D+04 ExpMxC= 2.43D+03 IAcc=3 IRadAn=         5 AccDes= 0.00D+00
 HarFok:  IExCor=  205 AccDes= 0.00D+00 IRadAn=         5 IDoV=-2
 ScaDFX=  1.000000  1.000000  1.000000  1.000000
 Largest valence mixing into a core orbital is  1.38D-04
 Largest core mixing into a valence orbital is  4.41D-05
 Range of M.O.s used for correlation:    97  1636
 NBasis=  1636 NAE=   298 NBE=   298 NFC=    96 NFV=     0
 NROrb=   1540 NOA=   202 NOB=   202 NVA=  1338 NVB=  1338

 **** Warning!!: The largest alpha MO coefficient is  0.13337029D+02


 **** Warning!!: The smallest alpha delta epsilon is  0.71111150D-01

 Leave Link  801 at Thu Jan  5 21:26:29 2012, MaxMem= 1073741824 cpu:      16.1
 (Enter /apps/gaussian/g09/g09/l914.exe)
 RHF ground state
 MDV=  1073741824 DFT=T DoStab=F Mixed=T DoRPA=T DoScal=F NonHer=T
 Would need an additional************ words for in-memory AO integral storage.
 Making orbital integer symmetry assigments:
 Orbital symmetries:
       Occupied  (A) (A) (A) (A) (A) (A) (A) (A) (A) (A) (A) (A)
                 (A) (A) (A) (A) (A) (A) (A) (A) (A) (A) (A) (A)
                 (A) (A) (A) (A) (A) (A) (A) (A) (A) (A) (A) (A)
                 (A) (A) (A) (A) (A) (A) (A) (A) (A) (A) (A) (A)
                 (A) (A) (A) (A) (A) (A) (A) (A) (A) (A) (A) (A)
                 (A) (A) (A) (A) (A) (A) (A) (A) (A) (A) (A) (A)
                 (A) (A) (A) (A) (A) (A) (A) (A) (A) (A) (A) (A)
                 (A) (A) (A) (A) (A) (A) (A) (A) (A) (A) (A) (A)
                 (A) (A) (A) (A) (A) (A) (A) (A) (A) (A) (A) (A)
                 (A) (A) (A) (A) (A) (A) (A) (A) (A) (A) (A) (A)
                 (A) (A) (A) (A) (A) (A) (A) (A) (A) (A) (A) (A)
                 (A) (A) (A) (A) (A) (A) (A) (A) (A) (A) (A) (A)
                 (A) (A) (A) (A) (A) (A) (A) (A) (A) (A) (A) (A)
                 (A) (A) (A) (A) (A) (A) (A) (A) (A) (A) (A) (A)
                 (A) (A) (A) (A) (A) (A) (A) (A) (A) (A) (A) (A)
                 (A) (A) (A) (A) (A) (A) (A) (A) (A) (A) (A) (A)
                 (A) (A) (A) (A) (A) (A) (A) (A) (A) (A) (A) (A)
                 (A) (A) (A) (A) (A) (A) (A) (A) (A) (A) (A) (A)
                 (A) (A) (A) (A) (A) (A) (A) (A) (A) (A) (A) (A)
                 (A) (A) (A) (A) (A) (A) (A) (A) (A) (A) (A) (A)
                 (A) (A) (A) (A) (A) (A) (A) (A) (A) (A) (A) (A)
                 (A) (A) (A) (A) (A) (A) (A) (A) (A) (A) (A) (A)
                 (A) (A) (A) (A) (A) (A) (A) (A) (A) (A) (A) (A)
                 (A) (A) (A) (A) (A) (A) (A) (A) (A) (A) (A) (A)
                 (A) (A) (A) (A) (A) (A) (A) (A) (A) (A)
       Virtual   (A) (A) (A) (A) (A) (A) (A) (A) (A) (A) (A) (A)
                 (A) (A) (A) (A) (A) (A) (A) (A) (A) (A) (A) (A)
                 (A) (A) (A) (A) (A) (A) (A) (A) (A) (A) (A) (A)
                 (A) (A) (A) (A) (A) (A) (A) (A) (A) (A) (A) (A)
                 (A) (A) (A) (A) (A) (A) (A) (A) (A) (A) (A) (A)
                 (A) (A) (A) (A) (A) (A) (A) (A) (A) (A) (A) (A)
                 (A) (A) (A) (A) (A) (A) (A) (A) (A) (A) (A) (A)
                 (A) (A) (A) (A) (A) (A) (A) (A) (A) (A) (A) (A)
                 (A) (A) (A) (A) (A) (A) (A) (A) (A) (A) (A) (A)
                 (A) (A) (A) (A) (A) (A) (A) (A) (A) (A) (A) (A)
                 (A) (A) (A) (A) (A) (A) (A) (A) (A) (A) (A) (A)
                 (A) (A) (A) (A) (A) (A) (A) (A) (A) (A) (A) (A)
                 (A) (A) (A) (A) (A) (A) (A) (A) (A) (A) (A) (A)
                 (A) (A) (A) (A) (A) (A) (A) (A) (A) (A) (A) (A)
                 (A) (A) (A) (A) (A) (A) (A) (A) (A) (A) (A) (A)
                 (A) (A) (A) (A) (A) (A) (A) (A) (A) (A) (A) (A)
                 (A) (A) (A) (A) (A) (A) (A) (A) (A) (A) (A) (A)
                 (A) (A) (A) (A) (A) (A) (A) (A) (A) (A) (A) (A)
                 (A) (A) (A) (A) (A) (A) (A) (A) (A) (A) (A) (A)
                 (A) (A) (A) (A) (A) (A) (A) (A) (A) (A) (A) (A)
                 (A) (A) (A) (A) (A) (A) (A) (A) (A) (A) (A) (A)
                 (A) (A) (A) (A) (A) (A) (A) (A) (A) (A) (A) (A)
                 (A) (A) (A) (A) (A) (A) (A) (A) (A) (A) (A) (A)
                 (A) (A) (A) (A) (A) (A) (A) (A) (A) (A) (A) (A)
                 (A) (A) (A) (A) (A) (A) (A) (A) (A) (A) (A) (A)
                 (A) (A) (A) (A) (A) (A) (A) (A) (A) (A) (A) (A)
                 (A) (A) (A) (A) (A) (A) (A) (A) (A) (A) (A) (A)
                 (A) (A) (A) (A) (A) (A) (A) (A) (A) (A) (A) (A)
                 (A) (A) (A) (A) (A) (A) (A) (A) (A) (A) (A) (A)
                 (A) (A) (A) (A) (A) (A) (A) (A) (A) (A) (A) (A)
                 (A) (A) (A) (A) (A) (A) (A) (A) (A) (A) (A) (A)
                 (A) (A) (A) (A) (A) (A) (A) (A) (A) (A) (A) (A)
                 (A) (A) (A) (A) (A) (A) (A) (A) (A) (A) (A) (A)
                 (A) (A) (A) (A) (A) (A) (A) (A) (A) (A) (A) (A)
                 (A) (A) (A) (A) (A) (A) (A) (A) (A) (A) (A) (A)
                 (A) (A) (A) (A) (A) (A) (A) (A) (A) (A) (A) (A)
                 (A) (A) (A) (A) (A) (A) (A) (A) (A) (A) (A) (A)
                 (A) (A) (A) (A) (A) (A) (A) (A) (A) (A) (A) (A)
                 (A) (A) (A) (A) (A) (A) (A) (A) (A) (A) (A) (A)
                 (A) (A) (A) (A) (A) (A) (A) (A) (A) (A) (A) (A)
                 (A) (A) (A) (A) (A) (A) (A) (A) (A) (A) (A) (A)
                 (A) (A) (A) (A) (A) (A) (A) (A) (A) (A) (A) (A)
                 (A) (A) (A) (A) (A) (A) (A) (A) (A) (A) (A) (A)
                 (A) (A) (A) (A) (A) (A) (A) (A) (A) (A) (A) (A)
                 (A) (A) (A) (A) (A) (A) (A) (A) (A) (A) (A) (A)
                 (A) (A) (A) (A) (A) (A) (A) (A) (A) (A) (A) (A)
                 (A) (A) (A) (A) (A) (A) (A) (A) (A) (A) (A) (A)
                 (A) (A) (A) (A) (A) (A) (A) (A) (A) (A) (A) (A)
                 (A) (A) (A) (A) (A) (A) (A) (A) (A) (A) (A) (A)
                 (A) (A) (A) (A) (A) (A) (A) (A) (A) (A) (A) (A)
                 (A) (A) (A) (A) (A) (A) (A) (A) (A) (A) (A) (A)
                 (A) (A) (A) (A) (A) (A) (A) (A) (A) (A) (A) (A)
                 (A) (A) (A) (A) (A) (A) (A) (A) (A) (A) (A) (A)
                 (A) (A) (A) (A) (A) (A) (A) (A) (A) (A) (A) (A)
                 (A) (A) (A) (A) (A) (A) (A) (A) (A) (A) (A) (A)
                 (A) (A) (A) (A) (A) (A) (A) (A) (A) (A) (A) (A)
                 (A) (A) (A) (A) (A) (A) (A) (A) (A) (A) (A) (A)
                 (A) (A) (A) (A) (A) (A) (A) (A) (A) (A) (A) (A)
                 (A) (A) (A) (A) (A) (A) (A) (A) (A) (A) (A) (A)
                 (A) (A) (A) (A) (A) (A) (A) (A) (A) (A) (A) (A)
                 (A) (A) (A) (A) (A) (A) (A) (A) (A) (A) (A) (A)
                 (A) (A) (A) (A) (A) (A) (A) (A) (A) (A) (A) (A)
                 (A) (A) (A) (A) (A) (A) (A) (A) (A) (A) (A) (A)
                 (A) (A) (A) (A) (A) (A) (A) (A) (A) (A) (A) (A)
                 (A) (A) (A) (A) (A) (A) (A) (A) (A) (A) (A) (A)
                 (A) (A) (A) (A) (A) (A) (A) (A) (A) (A) (A) (A)
                 (A) (A) (A) (A) (A) (A) (A) (A) (A) (A) (A) (A)
                 (A) (A) (A) (A) (A) (A) (A) (A) (A) (A) (A) (A)
                 (A) (A) (A) (A) (A) (A) (A) (A) (A) (A) (A) (A)
                 (A) (A) (A) (A) (A) (A) (A) (A) (A) (A) (A) (A)
                 (A) (A) (A) (A) (A) (A) (A) (A) (A) (A) (A) (A)
                 (A) (A) (A) (A) (A) (A) (A) (A) (A) (A) (A) (A)
                 (A) (A) (A) (A) (A) (A) (A) (A) (A) (A) (A) (A)
                 (A) (A) (A) (A) (A) (A) (A) (A) (A) (A) (A) (A)
                 (A) (A) (A) (A) (A) (A) (A) (A) (A) (A) (A) (A)
                 (A) (A) (A) (A) (A) (A) (A) (A) (A) (A) (A) (A)
                 (A) (A) (A) (A) (A) (A) (A) (A) (A) (A) (A) (A)
                 (A) (A) (A) (A) (A) (A) (A) (A) (A) (A) (A) (A)
                 (A) (A) (A) (A) (A) (A) (A) (A) (A) (A) (A) (A)
                 (A) (A) (A) (A) (A) (A) (A) (A) (A) (A) (A) (A)
                 (A) (A) (A) (A) (A) (A) (A) (A) (A) (A) (A) (A)
                 (A) (A) (A) (A) (A) (A) (A) (A) (A) (A) (A) (A)
                 (A) (A) (A) (A) (A) (A) (A) (A) (A) (A) (A) (A)
                 (A) (A) (A) (A) (A) (A) (A) (A) (A) (A) (A) (A)
                 (A) (A) (A) (A) (A) (A) (A) (A) (A) (A) (A) (A)
                 (A) (A) (A) (A) (A) (A) (A) (A) (A) (A) (A) (A)
                 (A) (A) (A) (A) (A) (A) (A) (A) (A) (A) (A) (A)
                 (A) (A) (A) (A) (A) (A) (A) (A) (A) (A) (A) (A)
                 (A) (A) (A) (A) (A) (A) (A) (A) (A) (A) (A) (A)
                 (A) (A) (A) (A) (A) (A) (A) (A) (A) (A) (A) (A)
                 (A) (A) (A) (A) (A) (A) (A) (A) (A) (A) (A) (A)
                 (A) (A) (A) (A) (A) (A) (A) (A) (A) (A) (A) (A)
                 (A) (A) (A) (A) (A) (A) (A) (A) (A) (A) (A) (A)
                 (A) (A) (A) (A) (A) (A) (A) (A) (A) (A) (A) (A)
                 (A) (A) (A) (A) (A) (A) (A) (A) (A) (A) (A) (A)
                 (A) (A) (A) (A) (A) (A) (A) (A) (A) (A) (A) (A)
                 (A) (A) (A) (A) (A) (A) (A) (A) (A) (A) (A) (A)
                 (A) (A) (A) (A) (A) (A) (A) (A) (A) (A) (A) (A)
                 (A) (A) (A) (A) (A) (A) (A) (A) (A) (A) (A) (A)
                 (A) (A) (A) (A) (A) (A) (A) (A) (A) (A) (A) (A)
                 (A) (A) (A) (A) (A) (A) (A) (A) (A) (A) (A) (A)
                 (A) (A) (A) (A) (A) (A) (A) (A) (A) (A) (A) (A)
                 (A) (A) (A) (A) (A) (A) (A) (A) (A) (A) (A) (A)
                 (A) (A) (A) (A) (A) (A) (A) (A) (A) (A) (A) (A)
                 (A) (A) (A) (A) (A) (A) (A) (A) (A) (A) (A) (A)
                 (A) (A) (A) (A) (A) (A) (A) (A) (A) (A) (A) (A)
                 (A) (A) (A) (A) (A) (A) (A) (A) (A) (A) (A) (A)
                 (A) (A) (A) (A) (A) (A) (A) (A) (A) (A) (A) (A)
                 (A) (A) (A) (A) (A) (A) (A) (A) (A) (A) (A) (A)
                 (A) (A) (A) (A) (A) (A) (A) (A) (A) (A) (A) (A)
                 (A) (A) (A) (A) (A) (A) (A) (A) (A) (A) (A) (A)
                 (A) (A) (A) (A) (A) (A)
   100 initial guesses have been made.
 Convergence on wavefunction:    0.001000000000000
 Davidson Disk Diagonalization:  ConvIn= 1.00D-03 SkipCon=T Conv= 1.00D-03.
 Max sub-space:   400 roots to seek:   100 dimension of matrix: 540552
 Iteration     1 Dimension   100 NMult   100
 Cannot handle 2e integral symmetry, ISym2E=1.
 CISAX:  IP=  8 NPass=   5 NMax=    20.
 CISAX will form    20 AO SS matrices at one time.
 NMat=    20 NSing=    20.
 FoFCou: FMM=T IPFlag=           0 FMFlag=      100000 FMFlg1=        2001
         NFxFlg=           0 DoJE=F BraDBF=F KetDBF=F FulRan=T
         Omega=  0.000000  0.000000  1.000000  0.000000  0.000000 ICntrl=       0 IOpCl=  0
         NMat0=   20 NMatS0=   20 NMatT0=    0 NMatD0=   20 NMtDS0=    0 NMtDT0=    0
         I1Cent=           0 NGrid=           0.
 Symmetry not used in FoFCou.
 FMM levels:  10  Number of levels for PrismC:   9
 NMat=    20 NSing=    20.
 NMat=    20 NSing=    20.
 NMat=    20 NSing=    20.
 NMat=    20 NSing=    20.
 Cannot handle 2e integral symmetry, ISym2E=1.
 CISAX:  IP=  8 NPass=   5 NMax=    20.
 CISAX will form    20 AO SS matrices at one time.
 NMat=    20 NSing=    20.
 NMat=    20 NSing=    20.
 NMat=    20 NSing=    20.
 NMat=    20 NSing=    20.
 NMat=    20 NSing=    20.
 New state      2 was old state      4
 New state      3 was old state      2
 New state      4 was old state      3
 New state      5 was old state      6
 New state      6 was old state      7
 New state      7 was old state      5
 New state      9 was old state     14
 New state     10 was old state     15
 New state     11 was old state     18
 New state     12 was old state     19
 New state     13 was old state      9
 New state     14 was old state     12
 New state     15 was old state     13
 New state     18 was old state     20
 New state     19 was old state     11
 New state     20 was old state     10
 No map to state     21
 No map to state     22
 New state     24 was old state     21
 New state     25 was old state     22
 Excitation Energies [eV] at current iteration:
 Root      1 :     1.610611183556093
 Root      2 :     1.643248244301673
 Root      3 :     2.193045079492061
 Root      4 :     2.241095724962877
 Root      5 :     2.803804231587729
 Root      6 :     2.805150607719454
 Root      7 :     2.926302869797738
 Root      8 :     2.954087719497252
 Root      9 :     3.214555359333950
 Root     10 :     3.217954932451798
 Root     11 :     3.252510331525760
[...]
 Alpha virt. eigenvalues --    2.43729   2.43818   2.43988   2.44071   2.44216
 Alpha virt. eigenvalues --    2.44733   2.44851   2.44943   2.45620   2.45638
 Alpha virt. eigenvalues --    2.46988   2.47101   2.47343   2.47607   2.48069
 Alpha virt. eigenvalues --    2.48086   2.48177   2.48787   2.49420   2.49456
 Alpha virt. eigenvalues --    2.49523   2.49620   2.49775   2.49891   2.49960
 Alpha virt. eigenvalues --    2.50054   2.50405   2.50475   2.51187   2.51283
 Alpha virt. eigenvalues --    2.51326   2.51347   2.51856   2.51920   2.52904
 Alpha virt. eigenvalues --    2.52968   2.53157   2.53218   2.53401   2.53489
 Alpha virt. eigenvalues --    2.53574   2.53659   2.53780   2.53833   2.54297
 Alpha virt. eigenvalues --    2.54310   2.54427   2.54449   2.54586   2.54702
 Alpha virt. eigenvalues --    2.54844   2.54929   2.56865   2.56939   2.58519
 Alpha virt. eigenvalues --    2.58597   2.59028   2.59059   2.59429   2.59473
 Alpha virt. eigenvalues --    2.60550   2.60682   2.60857   2.60921   2.61262
 Alpha virt. eigenvalues --    2.61575   2.61990   2.62101   2.62664   2.62747
 Alpha virt. eigenvalues --    2.63315   2.63412   2.65137   2.65165   2.65825
 Alpha virt. eigenvalues --    2.65877   2.67170   2.67221   2.67453   2.67492
 Alpha virt. eigenvalues --    2.67714   2.67725   2.68092   2.68214   2.68253
 Alpha virt. eigenvalues --    2.68397   2.68437   2.68478   2.68526   2.68938
 Alpha virt. eigenvalues --    2.69005   2.69236   2.69265   2.70030   2.70204
 Alpha virt. eigenvalues --    2.70562   2.74051   2.74095   2.74953   2.75089
 Alpha virt. eigenvalues --    2.75154   2.75318   2.75573   2.75593   2.75613
 Alpha virt. eigenvalues --    2.75808   2.75844   2.76049   2.76134   2.76198
 Alpha virt. eigenvalues --    2.76247   2.76386   2.76412   2.76654   2.77267
 Alpha virt. eigenvalues --    2.77294   2.78511   2.78719   2.79041   2.79132
 Alpha virt. eigenvalues --    2.79401   2.79620   2.80569   2.80667   2.81259
 Alpha virt. eigenvalues --    2.81317   2.82079   2.82124   2.82511   2.82766
 Alpha virt. eigenvalues --    2.82834   2.83152   2.83190   2.83701   2.84610
 Alpha virt. eigenvalues --    2.84703   2.85137   2.85264   2.85330   2.85431
 Alpha virt. eigenvalues --    2.85968   2.86054   2.87389   2.87479   2.87709
 Alpha virt. eigenvalues --    2.87797   2.87852   2.87934   2.87977   2.88042
 Alpha virt. eigenvalues --    2.88356   2.88501   2.90415   2.90424   2.90595
 Alpha virt. eigenvalues --    2.90668   2.90734   2.90835   2.91819   2.91901
 Alpha virt. eigenvalues --    2.92089   2.92128   2.93173   2.93197   3.02050
 Alpha virt. eigenvalues --    3.02105   3.02521   3.02588   3.03217   3.03259
 Alpha virt. eigenvalues --    3.06674   3.06947   3.07004   3.07193   3.07610
 Alpha virt. eigenvalues --    3.07744   3.08082   3.08122   3.08359   3.08504
 Alpha virt. eigenvalues --    3.08953   3.09226   3.09362   3.09550   3.09628
 Alpha virt. eigenvalues --    3.09685   3.09950   3.09996   3.10652   3.10695
 Alpha virt. eigenvalues --    3.10740   3.10792   3.10843   3.10972   3.11005
 Alpha virt. eigenvalues --    3.11052   3.11379   3.11550   3.11819   3.11858
 Alpha virt. eigenvalues --    3.12005   3.12122   3.12604   3.12742   3.14048
 Alpha virt. eigenvalues --    3.14166   3.17123   3.17214   3.18649   3.18752
 Alpha virt. eigenvalues --    3.18785   3.18864   3.18890   3.18936   3.18986
 Alpha virt. eigenvalues --    3.19052   3.20837   3.20911   3.21322   3.21433
 Alpha virt. eigenvalues --    3.22577   3.22693   3.22784   3.22810   3.25697
 Alpha virt. eigenvalues --    3.25758   3.28731   3.28795   3.29599   3.29663
 Alpha virt. eigenvalues --    3.30062   3.30119   3.32968   3.33013   3.33589
 Alpha virt. eigenvalues --    3.33657   3.39854   3.39924   3.44770   3.44826
 Alpha virt. eigenvalues --    3.50608   3.50661   3.54488   3.54544   3.59365
 Alpha virt. eigenvalues --    3.59435   3.59610   3.59771   3.61329   3.61397
 Alpha virt. eigenvalues --    3.61642   3.61924   3.61931   3.61982   3.62002
 Alpha virt. eigenvalues --    3.62094   3.62266   3.62424   3.63566   3.63631
 Alpha virt. eigenvalues --    3.64054   3.64194   3.64293   3.64455   3.64509
 Alpha virt. eigenvalues --    3.64652   3.64681   3.64725   3.65848   3.66007
 Alpha virt. eigenvalues --    3.66229   3.66264   3.70486   3.70551   3.70668
 Alpha virt. eigenvalues --    3.70741   3.71555   3.71576   3.71640   3.71651
 Alpha virt. eigenvalues --    3.71838   3.71858   3.71879   3.71912   3.72150
 Alpha virt. eigenvalues --    3.72283   3.72353   3.72439   3.72505   3.72605
 Alpha virt. eigenvalues --    3.72674   3.72746   3.72788   3.72934   3.72970
 Alpha virt. eigenvalues --    3.73133   3.73194   3.73236   3.73262   3.73382
 Alpha virt. eigenvalues --    3.73763   3.73832   3.74060   3.74400   3.74452
 Alpha virt. eigenvalues --    3.74824   3.74880   3.75160   3.79249   3.79303
 Alpha virt. eigenvalues --    3.79363   3.79510   3.79605   3.79612   3.79719
 Alpha virt. eigenvalues --    3.80431   3.83633   3.83736   3.86770   3.86858
 Alpha virt. eigenvalues --    3.87039   3.87061   3.87441   3.87474   3.95318
 Alpha virt. eigenvalues --    3.95404   3.96876   3.96887   4.07890   4.07946
 Alpha virt. eigenvalues --    4.10926   4.11013   4.11169   4.11191   4.11916
 Alpha virt. eigenvalues --    4.11973   4.12389   4.12444   4.13957   4.14001
 Alpha virt. eigenvalues --    4.14610   4.14674   4.14776   4.14829   4.15207
 Alpha virt. eigenvalues --    4.15274   4.17053   4.17144   4.17172   4.17187
 Alpha virt. eigenvalues --    4.18754   4.18820   4.21761   4.21813   4.22312
 Alpha virt. eigenvalues --    4.22340   4.33831   4.33899   4.34069   4.34136
 Alpha virt. eigenvalues --    4.34897   4.35064   4.36157   4.36228   4.38808
 Alpha virt. eigenvalues --    4.38831   4.39135   4.39199   4.41380   4.41411
 Alpha virt. eigenvalues --    4.45181   4.45232   4.47910   4.48022   4.48284
 Alpha virt. eigenvalues --    4.48340   4.48810   4.48890   4.49539   4.50105
 Alpha virt. eigenvalues --    4.50810   4.50900   4.51253   4.51302   4.57278
 Alpha virt. eigenvalues --    4.57390   4.57617   4.57928   4.58252   4.58397
 Alpha virt. eigenvalues --    4.59127   4.59282   4.60476   4.61000   4.63277
 Alpha virt. eigenvalues --    4.63329   4.71051   4.71273   4.71718   4.71974
 Alpha virt. eigenvalues --    4.78013   4.78069   4.86003   4.86057   4.96148
 Alpha virt. eigenvalues --    4.96204   5.09745   5.09802
          Condensed to atoms (all electrons):
 Mulliken atomic charges:
              1
     1  Si   0.558500
     2  Si   0.566409
     3  C   -0.071385
     4  C    0.112482
     5  C   -0.165854
     6  H    0.063872
     7  C    0.106620
     8  C   -0.080608
     9  H    0.057008
    10  C   -0.063156
    11  H    0.059623
    12  C   -0.061713
    13  H    0.058821
    14  C   -0.082440
    15  H    0.056225
    16  C    0.104991
    17  C   -0.168791
    18  H    0.063175
    19  C    0.114201
    20  C   -0.073798
    21  C    0.111782
    22  C   -0.163749
    23  H    0.062708
    24  C    0.108031
    25  C   -0.086668
    26  H    0.056317
    27  C   -0.064692
    28  H    0.058518
    29  C   -0.062118
    30  H    0.058626
    31  C   -0.085828
    32  H    0.058380
    33  C    0.091984
    34  C   -0.149022
    35  H    0.065633
    36  C    0.099307
    37  C    0.356996
    38  C   -0.565842
    39  C   -0.520646
    40  H    0.129901
    41  H    0.118290
    42  H    0.133936
    43  C   -0.521244
    44  H    0.129559
    45  H    0.119304
    46  H    0.126935
    47  C   -0.187414
    48  C   -0.293771
    49  H    0.101607
    50  H    0.102283
    51  H    0.094650
    52  C   -0.295145
    53  H    0.115874
    54  H    0.101655
    55  H    0.088969
    56  C   -0.294747
    57  H    0.088851
    58  H    0.101486
    59  H    0.115786
    60  C    0.376275
    61  C   -0.586555
    62  C   -0.519307
    63  H    0.123625
    64  H    0.118050
    65  H    0.128954
    66  C   -0.521145
    67  H    0.130358
    68  H    0.119190
    69  H    0.126825
    70  C   -0.189054
    71  C   -0.291921
    72  H    0.118903
    73  H    0.097393
    74  H    0.092117
    75  C   -0.293570
    76  H    0.101559
    77  H    0.101530
    78  H    0.095396
    79  C   -0.296284
    80  H    0.090720
    81  H    0.096562
    82  H    0.118196
    83  Si   0.558860
    84  Si   0.563451
    85  C   -0.072590
    86  C    0.112353
    87  C   -0.168002
    88  H    0.062477
    89  C    0.106937
    90  C   -0.082341
    91  H    0.055866
    92  C   -0.064049
    93  H    0.059134
    94  C   -0.062777
    95  H    0.058946
    96  C   -0.081999
    97  H    0.057166
    98  C    0.103839
    99  C   -0.167566
   100  H    0.064402
   101  C    0.113978
   102  C   -0.072120
   103  C    0.111874
   104  C   -0.161552
   105  H    0.063884
   106  C    0.108013
   107  C   -0.085118
   108  H    0.057137
   109  C   -0.063621
   110  H    0.059121
   111  C   -0.060681
   112  H    0.058797
   113  C   -0.086638
   114  H    0.057081
   115  C    0.093270
   116  C   -0.150308
   117  H    0.064615
   118  C    0.099974
   119  C    0.356916
   120  C   -0.567681
   121  C   -0.519501
   122  H    0.127748
   123  H    0.118619
   124  H    0.129890
   125  C   -0.521102
   126  H    0.129245
   127  H    0.119919
   128  H    0.126536
   129  C   -0.188123
   130  C   -0.293481
   131  H    0.101499
   132  H    0.102693
   133  H    0.095415
   134  C   -0.297771
   135  H    0.118762
   136  H    0.100924
   137  H    0.089078
   138  C   -0.294956
   139  H    0.090134
   140  H    0.101148
   141  H    0.115297
   142  C    0.375924
   143  C   -0.584874
   144  C   -0.518017
   145  H    0.124207
   146  H    0.118544
   147  H    0.134811
   148  C   -0.521610
   149  H    0.130526
   150  H    0.118924
   151  H    0.126946
   152  C   -0.185426
   153  C   -0.291254
   154  H    0.116104
   155  H    0.098713
   156  H    0.090948
   157  C   -0.293601
   158  H    0.101587
   159  H    0.101137
   160  H    0.096069
   161  C   -0.296419
   162  H    0.091511
   163  H    0.096838
   164  H    0.116910
 Sum of Mulliken atomic charges =   0.00000
 Mulliken charges with hydrogens summed into heavy atoms:
              1
     1  Si   0.558500
     2  Si   0.566409
     3  C   -0.071385
     4  C    0.112482
     5  C   -0.101982
     7  C    0.106620
     8  C   -0.023600
    10  C   -0.003533
    12  C   -0.002892
    14  C   -0.026214
    16  C    0.104991
    17  C   -0.105616
    19  C    0.114201
    20  C   -0.073798
    21  C    0.111782
    22  C   -0.101042
    24  C    0.108031
    25  C   -0.030351
    27  C   -0.006175
    29  C   -0.003493
    31  C   -0.027448
    33  C    0.091984
    34  C   -0.083389
    36  C    0.099307
    37  C    0.356996
    38  C   -0.565842
    39  C   -0.138518
    43  C   -0.145446
    47  C   -0.187414
    48  C    0.004769
    52  C    0.011353
    56  C    0.011377
    60  C    0.376275
    61  C   -0.586555
    62  C   -0.148677
    66  C   -0.144772
    70  C   -0.189054
    71  C    0.016492
    75  C    0.004914
    79  C    0.009195
    83  Si   0.558860
    84  Si   0.563451
    85  C   -0.072590
    86  C    0.112353
    87  C   -0.105525
    89  C    0.106937
    90  C   -0.026476
    92  C   -0.004915
    94  C   -0.003831
    96  C   -0.024833
    98  C    0.103839
    99  C   -0.103165
   101  C    0.113978
   102  C   -0.072120
   103  C    0.111874
   104  C   -0.097668
   106  C    0.108013
   107  C   -0.027981
   109  C   -0.004501
   111  C   -0.001885
   113  C   -0.029557
   115  C    0.093270
   116  C   -0.085693
   118  C    0.099974
   119  C    0.356916
   120  C   -0.567681
   121  C   -0.143244
   125  C   -0.145402
   129  C   -0.188123
   130  C    0.006126
   134  C    0.010994
   138  C    0.011623
   142  C    0.375924
   143  C   -0.584874
   144  C   -0.140455
   148  C   -0.145214
   152  C   -0.185426
   153  C    0.014510
   157  C    0.005192
   161  C    0.008841
 Sum of Mulliken charges with hydrogens summed into heavy atoms =   0.00000
 Electronic spatial extent (au):  <R**2>=          93347.5497
 Charge=              0.0000 electrons
 Dipole moment (field-independent basis, Debye):
    X=             -0.3337    Y=             -0.2385    Z=             -1.2488  Tot=              1.3144
 Quadrupole moment (field-independent basis, Debye-Ang):
   XX=           -458.2016   YY=           -477.6380   ZZ=           -466.5164
   XY=            -22.0488   XZ=            -16.7981   YZ=            -21.3119
 Traceless Quadrupole moment (field-independent basis, Debye-Ang):
   XX=              9.2504   YY=            -10.1860   ZZ=              0.9356
   XY=            -22.0488   XZ=            -16.7981   YZ=            -21.3119
 Octapole moment (field-independent basis, Debye-Ang**2):
  XXX=            -39.3416  YYY=             -3.2622  ZZZ=             24.1606  XYY=             -0.5582
  XXY=            -13.1281  XXZ=            -32.8287  XZZ=            -21.0374  YZZ=            -54.1392
  YYZ=            -27.6431  XYZ=              1.1823
 Hexadecapole moment (field-independent basis, Debye-Ang**3):
 XXXX=         -58925.6233 YYYY=         -41884.5886 ZZZZ=         -22211.8148 XXXY=           -683.4606
 XXXZ=           -425.1772 YYYX=           -648.1837 YYYZ=           -646.7555 ZZZX=           -496.8720
 ZZZY=           -821.7250 XXYY=         -17432.6945 XXZZ=         -13866.3832 YYZZ=         -10437.8242
 XXYZ=           -449.1270 YYXZ=           -480.2384 ZZXY=             54.1632
 N-N= 1.396781264535D+04 E-N=-3.752268631519D+04  KE= 4.089208513732D+03
 Leave Link  601 at Fri Jan  6 10:17:52 2012, MaxMem= 1073741824 cpu:      14.5
 (Enter /apps/gaussian/g09/g09/l9999.exe)
 1\1\GINC-CX1-14-36-2\SP\RTD-B3LYP-FC\6-31G(d,p)\C76H84Si4\JMF02\06-Jan
 -2012\0\\#p scf=verytight b3lyp/6-31g(d,p) td(singlets,nstates=25)\\CS
 D ENTRY k01094\\0,1\Si,0,7.67676375,4.94253357,2.1246362\Si,0,4.281619
 31,9.81253748,11.99769136\C,0,5.88830855,5.96626779,6.07011022\C,0,6.0
 9046715,5.24232125,7.26812329\C,0,6.62880609,3.9407062,7.27217704\H,0,
 6.87149525,3.54304041,6.44484343\C,0,6.81589231,3.22361801,8.43885663\
 C,0,7.35926412,1.90045493,8.45262392\H,0,7.59858004,1.48604649,7.63231
 206\C,0,7.54024973,1.2263429,9.61402789\H,0,7.90027364,0.34684983,9.59
 742299\C,0,7.19697251,1.82693137,10.85694954\H,0,7.33392581,1.34816304
 ,11.66574042\C,0,6.67611362,3.0741238,10.89544724\H,0,6.44428938,3.455
 91568,11.73444157\C,0,6.46769297,3.83280853,9.69764579\C,0,5.95394957,
 5.11585633,9.71254767\H,0,5.73472535,5.51543945,10.54618372\C,0,5.7448
 8805,5.8486812,8.53039414\C,0,5.24618382,7.18179101,8.55055133\C,0,5.0
 0798494,7.89329127,7.34627824\C,0,4.52458448,9.21206834,7.33206442\H,0
 ,4.33632148,9.63799685,8.15950986\C,0,4.31254682,9.91646084,6.15488506
 \C,0,3.87262532,11.27181772,6.13855037\H,0,3.73088329,11.72706803,6.95
 999322\C,0,3.65060121,11.92652525,4.96812936\H,0,3.36908454,12.8330411
 3,4.97950156\C,0,3.83999479,11.25774357,3.72181514\H,0,3.65971079,11.7
 1530814,2.9094394\C,0,4.27263193,9.97908794,3.69052781\H,0,4.39687443,
 9.54989218,2.85173773\C,0,4.55024596,9.25348337,4.89847709\C,0,5.04013
 076,7.95888586,4.89214092\H,0,5.20269426,7.52953526,4.05971304\C,0,5.3
 0535385,7.25979106,6.08357669\C,0,6.3665247,5.44970565,4.81807473\C,0,
 6.83687335,5.1280959,3.74768634\C,0,9.51187655,5.09836176,2.3815887\H,
 0,9.72990297,6.01747311,2.64161138\H,0,9.97884889,4.87519537,1.5480093
 1\H,0,9.79559418,4.48169378,3.08844859\C,0,7.2915254,3.27432175,1.3935
 0985\H,0,7.53957247,2.57366073,2.03135684\H,0,7.79947538,3.15685183,0.
 56418384\H,0,6.33217668,3.21704703,1.20038905\C,0,7.0302756,6.33469594
 ,1.02102575\C,0,7.64491082,6.20556194,-0.37887208\H,0,7.35521246,5.361
 96436,-0.78550582\H,0,8.62235029,6.21528429,-0.30781887\H,0,7.34879661
 ,6.95484057,-0.93584956\C,0,5.50430625,6.2565946,0.90480301\H,0,5.1047
 1654,6.34195577,1.79535875\H,0,5.25031207,5.39435065,0.51387037\H,0,5.
 18284169,6.98289614,0.33099066\C,0,7.41698613,7.70517882,1.60463832\H,
 0,7.04792623,8.41627832,1.04049978\H,0,8.39418619,7.78434877,1.6332418
 7\H,0,7.05622182,7.78707157,2.51226914\C,0,4.98373256,7.86218979,9.787
 18986\C,0,4.74019744,8.54041352,10.76397756\C,0,2.56019481,10.3879449,
 11.59480925\H,0,2.53224991,10.71107022,10.66964218\H,0,2.3086769,11.11
 41043,12.20212241\H,0,1.93364454,9.64148342,11.69987599\C,0,4.29440537
 ,9.08479763,13.70564722\H,0,3.71559593,8.29456471,13.72799833\H,0,3.96
 457006,9.7499146,14.34639997\H,0,5.20951381,8.82620593,13.94410238\C,0
 ,5.52525967,11.22465071,11.83927147\C,0,6.91715373,10.75601806,12.2719
 3341\H,0,7.18793505,9.98876868,11.72614695\H,0,6.89477462,10.49250497,
 13.2162284\H,0,7.56054392,11.48525197,12.15225066\C,0,5.11022129,12.40
 094172,12.73138559\H,0,5.05138975,12.10008422,13.66155204\H,0,4.236696
 07,12.7390198,12.44181536\H,0,5.77668313,13.11601759,12.66037778\C,0,5
 .59984975,11.71008171,10.37952284\H,0,6.23134275,12.45698023,10.315897
 37\H,0,4.71247854,12.00675451,10.08825219\H,0,5.90357448,10.97556075,9
 .80711717\Si,0,15.4958,4.94253,2.12464\Si,0,12.1006,9.81254,11.9977\C,
 0,13.7073,5.96627,6.07011\C,0,13.9095,5.24232,7.26812\C,0,14.4478,3.94
 071,7.27218\H,0,14.6905,3.54304,6.44484\C,0,14.6349,3.22362,8.43886\C,
 0,15.1783,1.90045,8.45262\H,0,15.4176,1.48605,7.63231\C,0,15.3592,1.22
 634,9.61403\H,0,15.7193,0.34685,9.59742\C,0,15.016,1.82693,10.8569\H,0
 ,15.1529,1.34816,11.6657\C,0,14.4951,3.07412,10.8954\H,0,14.2633,3.455
 92,11.7344\C,0,14.2867,3.83281,9.69765\C,0,13.7729,5.11586,9.71255\H,0
 ,13.5537,5.51544,10.5462\C,0,13.5639,5.84868,8.53039\C,0,13.0652,7.181
 79,8.55055\C,0,12.827,7.89329,7.34628\C,0,12.3436,9.21207,7.33206\H,0,
 12.1553,9.638,8.15951\C,0,12.1315,9.91646,6.15489\C,0,11.6916,11.2718,
 6.13855\H,0,11.5499,11.7271,6.95999\C,0,11.4696,11.9265,4.96813\H,0,11
 .1881,12.833,4.9795\C,0,11.659,11.2577,3.72182\H,0,11.4787,11.7153,2.9
 0944\C,0,12.0916,9.97909,3.69053\H,0,12.2159,9.54989,2.85174\C,0,12.36
 92,9.25348,4.89848\C,0,12.8591,7.95889,4.89214\H,0,13.0217,7.52954,4.0
 5971\C,0,13.1244,7.25979,6.08358\C,0,14.1855,5.44971,4.81807\C,0,14.65
 59,5.1281,3.74769\C,0,17.3309,5.09836,2.38159\H,0,17.5489,6.01747,2.64
 161\H,0,17.7978,4.8752,1.54801\H,0,17.6146,4.48169,3.08845\C,0,15.1105
 ,3.27432,1.39351\H,0,15.3586,2.57366,2.03136\H,0,15.6185,3.15685,0.564
 184\H,0,14.1512,3.21705,1.20039\C,0,14.8493,6.3347,1.02103\C,0,15.4639
 ,6.20556,-0.378872\H,0,15.1742,5.36196,-0.785506\H,0,16.4414,6.21528,-
 0.307819\H,0,15.1678,6.95484,-0.93585\C,0,13.3233,6.25659,0.904803\H,0
 ,12.9237,6.34196,1.79536\H,0,13.0693,5.39435,0.51387\H,0,13.0018,6.982
 9,0.330991\C,0,15.236,7.70518,1.60464\H,0,14.8669,8.41628,1.0405\H,0,1
 6.2132,7.78435,1.63324\H,0,14.8752,7.78707,2.51227\C,0,12.8027,7.86219
 ,9.78719\C,0,12.5592,8.54041,10.764\C,0,10.3792,10.3879,11.5948\H,0,10
 .3512,10.7111,10.6696\H,0,10.1277,11.1141,12.2021\H,0,9.75264,9.64148,
 11.6999\C,0,12.1134,9.0848,13.7056\H,0,11.5346,8.29456,13.728\H,0,11.7
 836,9.74991,14.3464\H,0,13.0285,8.82621,13.9441\C,0,13.3443,11.2247,11
 .8393\C,0,14.7362,10.756,12.2719\H,0,15.0069,9.98877,11.7261\H,0,14.71
 38,10.4925,13.2162\H,0,15.3795,11.4853,12.1523\C,0,12.9292,12.4009,12.
 7314\H,0,12.8704,12.1001,13.6616\H,0,12.0557,12.739,12.4418\H,0,13.595
 7,13.116,12.6604\C,0,13.4188,11.7101,10.3795\H,0,14.0503,12.457,10.315
 9\H,0,12.5315,12.0068,10.0883\H,0,13.7226,10.9756,9.80712\\Version=EM6
 4L-G09RevA.02\State=1-A\HF=-4103.8202129\RMSD=4.785e-09\PG=C01 [X(C76H
 84Si4)]\\@


 It is also a good rule not to put too much confidence in
 experimental results until they have been confirmed by
 Theory.
                             -- Sir Arthur Eddington
 Job cpu time:  4 days  9 hours 31 minutes 15.8 seconds.
 File lengths (MBytes):  RWF=  13560 Int=      0 D2E=      0 Chk=   2224 Scr=      1
 Normal termination of Gaussian 09 at Fri Jan  6 10:18:16 2012.
