 Entering Gaussian System, Link 0=g03
 Input=k01071_tips_Tv3.com
 Output=k01071_tips_Tv3.log
 Initial command:
 /apps/gaussian/g09/g09/l1.exe /tmp/pbs.509043.cx1b/Gau-32700.inp -scrdir=/tmp/pbs.509043.cx1b/
 Entering Link 1 = /apps/gaussian/g09/g09/l1.exe PID=     32708.
  
 Copyright (c) 1988,1990,1992,1993,1995,1998,2003,2009, Gaussian, Inc.
                  All Rights Reserved.
  
 This is part of the Gaussian(R) 09 program.  It is based on
 the Gaussian(R) 03 system (copyright 2003, Gaussian, Inc.),
 the Gaussian(R) 98 system (copyright 1998, Gaussian, Inc.),
 the Gaussian(R) 94 system (copyright 1995, Gaussian, Inc.),
 the Gaussian 92(TM) system (copyright 1992, Gaussian, Inc.),
 the Gaussian 90(TM) system (copyright 1990, Gaussian, Inc.),
 the Gaussian 88(TM) system (copyright 1988, Gaussian, Inc.),
 the Gaussian 86(TM) system (copyright 1986, Carnegie Mellon
 University), and the Gaussian 82(TM) system (copyright 1983,
 Carnegie Mellon University). Gaussian is a federally registered
 trademark of Gaussian, Inc.
  
 This software contains proprietary and confidential information,
 including trade secrets, belonging to Gaussian, Inc.
  
 This software is provided under written license and may be
 used, copied, transmitted, or stored only in accord with that
 written license.
  
 The following legend is applicable only to US Government
 contracts under FAR:
  
                    RESTRICTED RIGHTS LEGEND
  
 Use, reproduction and disclosure by the US Government is
 subject to restrictions as set forth in subparagraphs (a)
 and (c) of the Commercial Computer Software - Restricted
 Rights clause in FAR 52.227-19.
  
 Gaussian, Inc.
 340 Quinnipiac St., Bldg. 40, Wallingford CT 06492
  
  
 ---------------------------------------------------------------
 Warning -- This program may not be used in any manner that
 competes with the business of Gaussian, Inc. or will provide
 assistance to any competitor of Gaussian, Inc.  The licensee
 of this program is prohibited from giving any competitor of
 Gaussian, Inc. access to this program.  By using this program,
 the user acknowledges that Gaussian, Inc. is engaged in the
 business of creating and licensing software in the field of
 computational chemistry and represents and warrants to the
 licensee that it is not a competitor of Gaussian, Inc. and that
 it will not use this program in any manner prohibited above.
 ---------------------------------------------------------------
  

 Cite this work as:
 Gaussian 09, Revision A.02,
 M. J. Frisch, G. W. Trucks, H. B. Schlegel, G. E. Scuseria, 
 M. A. Robb, J. R. Cheeseman, G. Scalmani, V. Barone, B. Mennucci, 
 G. A. Petersson, H. Nakatsuji, M. Caricato, X. Li, H. P. Hratchian, 
 A. F. Izmaylov, J. Bloino, G. Zheng, J. L. Sonnenberg, M. Hada, 
 M. Ehara, K. Toyota, R. Fukuda, J. Hasegawa, M. Ishida, T. Nakajima, 
 Y. Honda, O. Kitao, H. Nakai, T. Vreven, J. A. Montgomery, Jr., 
 J. E. Peralta, F. Ogliaro, M. Bearpark, J. J. Heyd, E. Brothers, 
 K. N. Kudin, V. N. Staroverov, R. Kobayashi, J. Normand, 
 K. Raghavachari, A. Rendell, J. C. Burant, S. S. Iyengar, J. Tomasi, 
 M. Cossi, N. Rega, J. M. Millam, M. Klene, J. E. Knox, J. B. Cross, 
 V. Bakken, C. Adamo, J. Jaramillo, R. Gomperts, R. E. Stratmann, 
 O. Yazyev, A. J. Austin, R. Cammi, C. Pomelli, J. W. Ochterski, 
 R. L. Martin, K. Morokuma, V. G. Zakrzewski, G. A. Voth, 
 P. Salvador, J. J. Dannenberg, S. Dapprich, A. D. Daniels, 
 O. Farkas, J. B. Foresman, J. V. Ortiz, J. Cioslowski, 
 and D. J. Fox, Gaussian, Inc., Wallingford CT, 2009.
 
 ******************************************
 Gaussian 09:  EM64L-G09RevA.02 11-Jun-2009
                 5-Jan-2012 
 ******************************************
 %chk=k01071_tips_Tv3.chk
 %Mem=8Gb
 %nproc=8
 Will use up to    8 processors via shared memory.
 ---------------------------------------------------------
 #p scf=verytight b3lyp/6-31g(d,p) td(singlets,nstates=25)
 ---------------------------------------------------------
 1/38=1/1;
 2/12=2,17=6,18=5,40=1/2;
 3/5=1,6=6,7=101,11=2,16=1,25=1,30=1,74=-5/1,2,8,3;
 4//1;
 5/5=2,17=3,38=5/2;
 8/6=1,10=2,108=25/1;
 9/41=25,42=1,48=1/14;
 6/7=2,8=2,9=2,10=2/1;
 99/5=1,9=1/99;
 Leave Link    1 at Thu Jan  5 21:29:22 2012, MaxMem= 1073741824 cpu:       0.2
 (Enter /apps/gaussian/g09/g09/l101.exe)
 ----------------
 CSD ENTRY k01071
 ----------------
 Symbolic Z-matrix:
 Charge =  0 Multiplicity = 1
 Si(PDBName=Si,ResName=UNK,ResNum=1)  9.41188   10.36196   8.66644 
 C(PDBName=C1,ResName=UNK,ResNum=1)  7.45586   7.4104    5.97347 
 C(PDBName=C2,ResName=UNK,ResNum=1)  8.22032   6.21507   5.87145 
 C(PDBName=C3,ResName=UNK,ResNum=1)  9.39911   6.03037   6.61804 
 H(PDBName=H3,ResName=UNK,ResNum=1)  9.68599   6.72115   7.20437 
 C(PDBName=C4,ResName=UNK,ResNum=1)  10.15409   4.87258   6.52522 
 C(PDBName=C5,ResName=UNK,ResNum=1)  11.36349   4.69895   7.27124 
 H(PDBName=H5,ResName=UNK,ResNum=1)  11.65798   5.38907   7.85376 
 C(PDBName=C6,ResName=UNK,ResNum=1)  12.09386   3.56168   7.15674 
 H(PDBName=H6,ResName=UNK,ResNum=1)  12.89281   3.46263   7.66055 
 C(PDBName=C7,ResName=UNK,ResNum=1)  11.67288   2.51587   6.28835 
 H(PDBName=H7,ResName=UNK,ResNum=1)  12.18792   1.72016   6.22635 
 C(PDBName=C8,ResName=UNK,ResNum=1)  10.54607   2.64176   5.55232 
 H(PDBName=H8,ResName=UNK,ResNum=1)  10.28816   1.93736   4.96925 
 C(PDBName=C9,ResName=UNK,ResNum=1)  9.73478   3.82152   5.63697 
 C(PDBName=C10,ResName=UNK,ResNum=1)  8.57424   3.98941   4.89823 
 H(PDBName=H10,ResName=UNK,ResNum=1)  8.29366   3.29195   4.31696 
 C(PDBName=C11,ResName=UNK,ResNum=1)  7.79281   5.16314   4.98219 
 C(PDBName=C12,ResName=UNK,ResNum=1)  7.91749   8.43899   6.85229 
 C(PDBName=C13,ResName=UNK,ResNum=1)  8.39889   9.26264   7.5939 
 C(PDBName=C14,ResName=UNK,ResNum=1)  10.45271   11.4444   7.58129 
 H(PDBName=H14A,ResName=UNK,ResNum=1)  11.11233   10.89405   7.10961 
 H(PDBName=H14B,ResName=UNK,ResNum=1)  10.91687   12.10872   8.13235 
 H(PDBName=H14C,ResName=UNK,ResNum=1)  9.88165   11.90064   6.92987 
 C(PDBName=C15,ResName=UNK,ResNum=1)  10.53534   9.26828   9.66183 
 H(PDBName=H15A,ResName=UNK,ResNum=1)  9.99987   8.71999   10.27312 
 H(PDBName=H15B,ResName=UNK,ResNum=1)  11.15721   9.8223    10.17862 
 H(PDBName=H15C,ResName=UNK,ResNum=1)  11.04153   8.68508   9.05907 
 C(PDBName=C16,ResName=UNK,ResNum=1)  8.31856   11.37181   9.77123 
 H(PDBName=H16A,ResName=UNK,ResNum=1)  7.7416    11.94541   9.22433 
 H(PDBName=H16B,ResName=UNK,ResNum=1)  8.8717    11.92874   10.35918 
 H(PDBName=H16C,ResName=UNK,ResNum=1)  7.76267   10.77446   10.31516 
 Si(PDBName=Si,ResName=UNK,ResNum=1)  4.65373   2.38      1.5293 
 C(PDBName=C1,ResName=UNK,ResNum=1)  6.60975   5.33157   4.22226 
 C(PDBName=C2,ResName=UNK,ResNum=1)  5.84529   6.52689   4.32428 
 C(PDBName=C3,ResName=UNK,ResNum=1)  4.6665    6.7116    3.57769 
 H(PDBName=H3,ResName=UNK,ResNum=1)  4.37962   6.02082   2.99136 
 C(PDBName=C4,ResName=UNK,ResNum=1)  3.91152   7.86938   3.67051 
 C(PDBName=C5,ResName=UNK,ResNum=1)  2.70213   8.04302   2.92449 
 H(PDBName=H5,ResName=UNK,ResNum=1)  2.40763   7.35289   2.34197 
 C(PDBName=C6,ResName=UNK,ResNum=1)  1.97176   9.18028   3.03899 
 H(PDBName=H6,ResName=UNK,ResNum=1)  1.17281   9.27933   2.53519 
 C(PDBName=C7,ResName=UNK,ResNum=1)  2.39273   10.22609   3.90738 
 H(PDBName=H7,ResName=UNK,ResNum=1)  1.8777    11.02181   3.96938 
 C(PDBName=C8,ResName=UNK,ResNum=1)  3.51954   10.1002   4.64341 
 H(PDBName=H8,ResName=UNK,ResNum=1)  3.77746   10.80461   5.22648 
 C(PDBName=C9,ResName=UNK,ResNum=1)  4.33084   8.92044   4.55876 
 C(PDBName=C10,ResName=UNK,ResNum=1)  5.49138   8.75255   5.29751 
 H(PDBName=H10,ResName=UNK,ResNum=1)  5.77195   9.45001   5.87877 
 C(PDBName=C11,ResName=UNK,ResNum=1)  6.2728    7.57882   5.21355 
 C(PDBName=C12,ResName=UNK,ResNum=1)  6.14812   4.30298   3.34344 
 C(PDBName=C13,ResName=UNK,ResNum=1)  5.66672   3.47932   2.60183 
 C(PDBName=C14,ResName=UNK,ResNum=1)  3.6129    1.29756   2.61444 
 H(PDBName=H14A,ResName=UNK,ResNum=1)  2.95329   1.84792   3.08612 
 H(PDBName=H14B,ResName=UNK,ResNum=1)  3.14874   0.63324   2.06338 
 H(PDBName=H14C,ResName=UNK,ResNum=1)  4.18397   0.84132   3.26586 
 C(PDBName=C15,ResName=UNK,ResNum=1)  3.53027   3.47369   0.53391 
 H(PDBName=H15A,ResName=UNK,ResNum=1)  4.06574   4.02198  -0.07739 
 H(PDBName=H15B,ResName=UNK,ResNum=1)  2.90841   2.91966   0.01711 
 H(PDBName=H15C,ResName=UNK,ResNum=1)  3.02408   4.05688   1.13667 
 C(PDBName=C16,ResName=UNK,ResNum=1)  5.74706   1.37015   0.4245 
 H(PDBName=H16A,ResName=UNK,ResNum=1)  6.32401   0.79655   0.9714 
 H(PDBName=H16B,ResName=UNK,ResNum=1)  5.19392   0.81322  -0.16344 
 H(PDBName=H16C,ResName=UNK,ResNum=1)  6.30294   1.9675   -0.11943 
 Si(PDBName=Si,ResName=UNK,ResNum=1)  12.0446   12.9089   19.7171 
 C(PDBName=C1,ResName=UNK,ResNum=1)  10.0886   9.95735   17.0242 
 C(PDBName=C2,ResName=UNK,ResNum=1)  10.8531   8.76203   16.9222 
 C(PDBName=C3,ResName=UNK,ResNum=1)  12.0318   8.57732   17.6687 
 H(PDBName=H3,ResName=UNK,ResNum=1)  12.3187   9.2681    18.2551 
 C(PDBName=C4,ResName=UNK,ResNum=1)  12.7868   7.41954   17.5759 
 C(PDBName=C5,ResName=UNK,ResNum=1)  13.9962   7.2459    18.3219 
 H(PDBName=H5,ResName=UNK,ResNum=1)  14.2907   7.93603   18.9045 
 C(PDBName=C6,ResName=UNK,ResNum=1)  14.7266   6.10863   18.2074 
 H(PDBName=H6,ResName=UNK,ResNum=1)  15.5255   6.00958   18.7112 
 C(PDBName=C7,ResName=UNK,ResNum=1)  14.3056   5.06283   17.339 
 H(PDBName=H7,ResName=UNK,ResNum=1)  14.8207   4.26711   17.277 
 C(PDBName=C8,ResName=UNK,ResNum=1)  13.1788   5.18871   16.603 
 H(PDBName=H8,ResName=UNK,ResNum=1)  12.9209   4.48431   16.0199 
 C(PDBName=C9,ResName=UNK,ResNum=1)  12.3675   6.36847   16.6877 
 C(PDBName=C10,ResName=UNK,ResNum=1)  11.207    6.53637   15.9489 
 H(PDBName=H10,ResName=UNK,ResNum=1)  10.9264   5.8389    15.3677 
 C(PDBName=C11,ResName=UNK,ResNum=1)  10.4256   7.7101    16.0329 
 C(PDBName=C12,ResName=UNK,ResNum=1)  10.5502   10.9859   17.903 
 C(PDBName=C13,ResName=UNK,ResNum=1)  11.0316   11.8096   18.6446 
 C(PDBName=C14,ResName=UNK,ResNum=1)  13.0855   13.9914   18.632 
 H(PDBName=H14A,ResName=UNK,ResNum=1)  13.7451   13.441    18.1603 
 H(PDBName=H14B,ResName=UNK,ResNum=1)  13.5496   14.6557   19.183 
 H(PDBName=H14C,ResName=UNK,ResNum=1)  12.5144   14.4476   17.9806 
 C(PDBName=C15,ResName=UNK,ResNum=1)  13.1681   11.8152   20.7125 
 H(PDBName=H15A,ResName=UNK,ResNum=1)  12.6326   11.2669   21.3238 
 H(PDBName=H15B,ResName=UNK,ResNum=1)  13.7899   12.3693   21.2293 
 H(PDBName=H15C,ResName=UNK,ResNum=1)  13.6743   11.232    20.1098 
 C(PDBName=C16,ResName=UNK,ResNum=1)  10.9513   13.9188   20.8219 
 H(PDBName=H16A,ResName=UNK,ResNum=1)  10.3743   14.4924   20.275 
 H(PDBName=H16B,ResName=UNK,ResNum=1)  11.5044   14.4757   21.4099 
 H(PDBName=H16C,ResName=UNK,ResNum=1)  10.3954   13.3214   21.3659 
 Si(PDBName=Si,ResName=UNK,ResNum=1)  7.28647   4.92695   12.58 
 C(PDBName=C1,ResName=UNK,ResNum=1)  9.24249   7.87852   15.273 
 C(PDBName=C2,ResName=UNK,ResNum=1)  8.47803   9.07385   15.375 
 C(PDBName=C3,ResName=UNK,ResNum=1)  7.29924   9.25855   14.6284 
 H(PDBName=H3,ResName=UNK,ResNum=1)  7.01236   8.56777   14.0421 
 C(PDBName=C4,ResName=UNK,ResNum=1)  6.54426   10.4163   14.7212 
 C(PDBName=C5,ResName=UNK,ResNum=1)  5.33486   10.59     13.9752 
 H(PDBName=H5,ResName=UNK,ResNum=1)  5.04037   9.89984   13.3927 
 C(PDBName=C6,ResName=UNK,ResNum=1)  4.6045    11.7272   14.0897 
 H(PDBName=H6,ResName=UNK,ResNum=1)  3.80555   11.8263   13.5859 
 C(PDBName=C7,ResName=UNK,ResNum=1)  5.02547   12.773    14.9581 
 H(PDBName=H7,ResName=UNK,ResNum=1)  4.51043   13.5688   15.0201 
 C(PDBName=C8,ResName=UNK,ResNum=1)  6.15228   12.6472   15.6941 
 H(PDBName=H8,ResName=UNK,ResNum=1)  6.41019   13.3516   16.2772 
 C(PDBName=C9,ResName=UNK,ResNum=1)  6.96357   11.4674   15.6095 
 C(PDBName=C10,ResName=UNK,ResNum=1)  8.12411   11.2995   16.3482 
 H(PDBName=H10,ResName=UNK,ResNum=1)  8.40469   11.997    16.9295 
 C(PDBName=C11,ResName=UNK,ResNum=1)  8.90554   10.1258   16.2642 
 C(PDBName=C12,ResName=UNK,ResNum=1)  8.78086   6.84993   14.3941 
 C(PDBName=C13,ResName=UNK,ResNum=1)  8.29946   6.02628   13.6525 
 C(PDBName=C14,ResName=UNK,ResNum=1)  6.24564   3.84451   13.6651 
 H(PDBName=H14A,ResName=UNK,ResNum=1)  5.58602   4.39487   14.1368 
 H(PDBName=H14B,ResName=UNK,ResNum=1)  5.78148   3.18019   13.1141 
 H(PDBName=H14C,ResName=UNK,ResNum=1)  6.8167    3.38828   14.3166 
 C(PDBName=C15,ResName=UNK,ResNum=1)  6.16301   6.02064   11.5846 
 H(PDBName=H15A,ResName=UNK,ResNum=1)  6.69848   6.56893   10.9733 
 H(PDBName=H15B,ResName=UNK,ResNum=1)  5.54114   5.46662   11.0678 
 H(PDBName=H15C,ResName=UNK,ResNum=1)  5.65682   6.60384   12.1874 
 C(PDBName=C16,ResName=UNK,ResNum=1)  8.37979   3.9171    11.4752 
 H(PDBName=H16A,ResName=UNK,ResNum=1)  8.95675   3.3435    12.0221 
 H(PDBName=H16B,ResName=UNK,ResNum=1)  7.82666   3.36018   10.8873 
 H(PDBName=H16C,ResName=UNK,ResNum=1)  8.93568   4.51445   10.9313 
 
 NAtoms=    128 NQM=    128 NQMF=      0 NMic=      0 NMicF=      0 NTot=    128.
                    Isotopes and Nuclear Properties:
 (Nuclear quadrupole moments (NQMom) in fm**2, nuclear magnetic moments (NMagM)
  in nuclear magnetons)

  Atom         1           2           3           4           5           6           7           8           9          10
 IAtWgt=          28          12          12          12           1          12          12           1          12           1
 AtmWgt=  27.9769284  12.0000000  12.0000000  12.0000000   1.0078250  12.0000000  12.0000000   1.0078250  12.0000000   1.0078250
 NucSpn=           0           0           0           0           1           0           0           1           0           1
 AtZEff=   0.0000000   0.0000000   0.0000000   0.0000000   0.0000000   0.0000000   0.0000000   0.0000000   0.0000000   0.0000000
 NQMom=    0.0000000   0.0000000   0.0000000   0.0000000   0.0000000   0.0000000   0.0000000   0.0000000   0.0000000   0.0000000
 NMagM=    0.0000000   0.0000000   0.0000000   0.0000000   2.7928460   0.0000000   0.0000000   2.7928460   0.0000000   2.7928460

  Atom        11          12          13          14          15          16          17          18          19          20
 IAtWgt=          12           1          12           1          12          12           1          12          12          12
 AtmWgt=  12.0000000   1.0078250  12.0000000   1.0078250  12.0000000  12.0000000   1.0078250  12.0000000  12.0000000  12.0000000
 NucSpn=           0           1           0           1           0           0           1           0           0           0
 AtZEff=   0.0000000   0.0000000   0.0000000   0.0000000   0.0000000   0.0000000   0.0000000   0.0000000   0.0000000   0.0000000
 NQMom=    0.0000000   0.0000000   0.0000000   0.0000000   0.0000000   0.0000000   0.0000000   0.0000000   0.0000000   0.0000000
 NMagM=    0.0000000   2.7928460   0.0000000   2.7928460   0.0000000   0.0000000   2.7928460   0.0000000   0.0000000   0.0000000

  Atom        21          22          23          24          25          26          27          28          29          30
 IAtWgt=          12           1           1           1          12           1           1           1          12           1
 AtmWgt=  12.0000000   1.0078250   1.0078250   1.0078250  12.0000000   1.0078250   1.0078250   1.0078250  12.0000000   1.0078250
 NucSpn=           0           1           1           1           0           1           1           1           0           1
 AtZEff=   0.0000000   0.0000000   0.0000000   0.0000000   0.0000000   0.0000000   0.0000000   0.0000000   0.0000000   0.0000000
 NQMom=    0.0000000   0.0000000   0.0000000   0.0000000   0.0000000   0.0000000   0.0000000   0.0000000   0.0000000   0.0000000
 NMagM=    0.0000000   2.7928460   2.7928460   2.7928460   0.0000000   2.7928460   2.7928460   2.7928460   0.0000000   2.7928460

  Atom        31          32          33          34          35          36          37          38          39          40
 IAtWgt=           1           1          28          12          12          12           1          12          12           1
 AtmWgt=   1.0078250   1.0078250  27.9769284  12.0000000  12.0000000  12.0000000   1.0078250  12.0000000  12.0000000   1.0078250
 NucSpn=           1           1           0           0           0           0           1           0           0           1
 AtZEff=   0.0000000   0.0000000   0.0000000   0.0000000   0.0000000   0.0000000   0.0000000   0.0000000   0.0000000   0.0000000
 NQMom=    0.0000000   0.0000000   0.0000000   0.0000000   0.0000000   0.0000000   0.0000000   0.0000000   0.0000000   0.0000000
 NMagM=    2.7928460   2.7928460   0.0000000   0.0000000   0.0000000   0.0000000   2.7928460   0.0000000   0.0000000   2.7928460

  Atom        41          42          43          44          45          46          47          48          49          50
 IAtWgt=          12           1          12           1          12           1          12          12           1          12
 AtmWgt=  12.0000000   1.0078250  12.0000000   1.0078250  12.0000000   1.0078250  12.0000000  12.0000000   1.0078250  12.0000000
 NucSpn=           0           1           0           1           0           1           0           0           1           0
 AtZEff=   0.0000000   0.0000000   0.0000000   0.0000000   0.0000000   0.0000000   0.0000000   0.0000000   0.0000000   0.0000000
 NQMom=    0.0000000   0.0000000   0.0000000   0.0000000   0.0000000   0.0000000   0.0000000   0.0000000   0.0000000   0.0000000
 NMagM=    0.0000000   2.7928460   0.0000000   2.7928460   0.0000000   2.7928460   0.0000000   0.0000000   2.7928460   0.0000000

  Atom        51          52          53          54          55          56          57          58          59          60
 IAtWgt=          12          12          12           1           1           1          12           1           1           1
 AtmWgt=  12.0000000  12.0000000  12.0000000   1.0078250   1.0078250   1.0078250  12.0000000   1.0078250   1.0078250   1.0078250
 NucSpn=           0           0           0           1           1           1           0           1           1           1
 AtZEff=   0.0000000   0.0000000   0.0000000   0.0000000   0.0000000   0.0000000   0.0000000   0.0000000   0.0000000   0.0000000
 NQMom=    0.0000000   0.0000000   0.0000000   0.0000000   0.0000000   0.0000000   0.0000000   0.0000000   0.0000000   0.0000000
 NMagM=    0.0000000   0.0000000   0.0000000   2.7928460   2.7928460   2.7928460   0.0000000   2.7928460   2.7928460   2.7928460

  Atom        61          62          63          64          65          66          67          68          69          70
 IAtWgt=          12           1           1           1          28          12          12          12           1          12
 AtmWgt=  12.0000000   1.0078250   1.0078250   1.0078250  27.9769284  12.0000000  12.0000000  12.0000000   1.0078250  12.0000000
 NucSpn=           0           1           1           1           0           0           0           0           1           0
 AtZEff=   0.0000000   0.0000000   0.0000000   0.0000000   0.0000000   0.0000000   0.0000000   0.0000000   0.0000000   0.0000000
 NQMom=    0.0000000   0.0000000   0.0000000   0.0000000   0.0000000   0.0000000   0.0000000   0.0000000   0.0000000   0.0000000
 NMagM=    0.0000000   2.7928460   2.7928460   2.7928460   0.0000000   0.0000000   0.0000000   0.0000000   2.7928460   0.0000000

  Atom        71          72          73          74          75          76          77          78          79          80
 IAtWgt=          12           1          12           1          12           1          12           1          12          12
 AtmWgt=  12.0000000   1.0078250  12.0000000   1.0078250  12.0000000   1.0078250  12.0000000   1.0078250  12.0000000  12.0000000
 NucSpn=           0           1           0           1           0           1           0           1           0           0
 AtZEff=   0.0000000   0.0000000   0.0000000   0.0000000   0.0000000   0.0000000   0.0000000   0.0000000   0.0000000   0.0000000
 NQMom=    0.0000000   0.0000000   0.0000000   0.0000000   0.0000000   0.0000000   0.0000000   0.0000000   0.0000000   0.0000000
 NMagM=    0.0000000   2.7928460   0.0000000   2.7928460   0.0000000   2.7928460   0.0000000   2.7928460   0.0000000   0.0000000

  Atom        81          82          83          84          85          86          87          88          89          90
 IAtWgt=           1          12          12          12          12           1           1           1          12           1
 AtmWgt=   1.0078250  12.0000000  12.0000000  12.0000000  12.0000000   1.0078250   1.0078250   1.0078250  12.0000000   1.0078250
 NucSpn=           1           0           0           0           0           1           1           1           0           1
 AtZEff=   0.0000000   0.0000000   0.0000000   0.0000000   0.0000000   0.0000000   0.0000000   0.0000000   0.0000000   0.0000000
 NQMom=    0.0000000   0.0000000   0.0000000   0.0000000   0.0000000   0.0000000   0.0000000   0.0000000   0.0000000   0.0000000
 NMagM=    2.7928460   0.0000000   0.0000000   0.0000000   0.0000000   2.7928460   2.7928460   2.7928460   0.0000000   2.7928460

  Atom        91          92          93          94          95          96          97          98          99         100
 IAtWgt=           1           1          12           1           1           1          28          12          12          12
 AtmWgt=   1.0078250   1.0078250  12.0000000   1.0078250   1.0078250   1.0078250  27.9769284  12.0000000  12.0000000  12.0000000
 NucSpn=           1           1           0           1           1           1           0           0           0           0
 AtZEff=   0.0000000   0.0000000   0.0000000   0.0000000   0.0000000   0.0000000   0.0000000   0.0000000   0.0000000   0.0000000
 NQMom=    0.0000000   0.0000000   0.0000000   0.0000000   0.0000000   0.0000000   0.0000000   0.0000000   0.0000000   0.0000000
 NMagM=    2.7928460   2.7928460   0.0000000   2.7928460   2.7928460   2.7928460   0.0000000   0.0000000   0.0000000   0.0000000

  Atom       101         102         103         104         105         106         107         108         109         110
 IAtWgt=           1          12          12           1          12           1          12           1          12           1
 AtmWgt=   1.0078250  12.0000000  12.0000000   1.0078250  12.0000000   1.0078250  12.0000000   1.0078250  12.0000000   1.0078250
 NucSpn=           1           0           0           1           0           1           0           1           0           1
 AtZEff=   0.0000000   0.0000000   0.0000000   0.0000000   0.0000000   0.0000000   0.0000000   0.0000000   0.0000000   0.0000000
 NQMom=    0.0000000   0.0000000   0.0000000   0.0000000   0.0000000   0.0000000   0.0000000   0.0000000   0.0000000   0.0000000
 NMagM=    2.7928460   0.0000000   0.0000000   2.7928460   0.0000000   2.7928460   0.0000000   2.7928460   0.0000000   2.7928460

  Atom       111         112         113         114         115         116         117         118         119         120
 IAtWgt=          12          12           1          12          12          12          12           1           1           1
 AtmWgt=  12.0000000  12.0000000   1.0078250  12.0000000  12.0000000  12.0000000  12.0000000   1.0078250   1.0078250   1.0078250
 NucSpn=           0           0           1           0           0           0           0           1           1           1
 AtZEff=   0.0000000   0.0000000   0.0000000   0.0000000   0.0000000   0.0000000   0.0000000   0.0000000   0.0000000   0.0000000
 NQMom=    0.0000000   0.0000000   0.0000000   0.0000000   0.0000000   0.0000000   0.0000000   0.0000000   0.0000000   0.0000000
 NMagM=    0.0000000   0.0000000   2.7928460   0.0000000   0.0000000   0.0000000   0.0000000   2.7928460   2.7928460   2.7928460

  Atom       121         122         123         124         125         126         127         128
 IAtWgt=          12           1           1           1          12           1           1           1
 AtmWgt=  12.0000000   1.0078250   1.0078250   1.0078250  12.0000000   1.0078250   1.0078250   1.0078250
 NucSpn=           0           1           1           1           0           1           1           1
 AtZEff=   0.0000000   0.0000000   0.0000000   0.0000000   0.0000000   0.0000000   0.0000000   0.0000000
 NQMom=    0.0000000   0.0000000   0.0000000   0.0000000   0.0000000   0.0000000   0.0000000   0.0000000
 NMagM=    0.0000000   2.7928460   2.7928460   2.7928460   0.0000000   2.7928460   2.7928460   2.7928460
 Leave Link  101 at Thu Jan  5 21:29:22 2012, MaxMem= 1073741824 cpu:       0.6
 (Enter /apps/gaussian/g09/g09/l202.exe)
 Stoichiometry    C64H60Si4
 Framework group  C1[X(C64H60Si4)]
 Deg. of freedom   378
 Full point group                 C1      NOp   1
 Largest Abelian subgroup         C1      NOp   1
 Largest concise Abelian subgroup C1      NOp   1
                         Standard orientation:                         
 ---------------------------------------------------------------------
 Center     Atomic      Atomic             Coordinates (Angstroms)
 Number     Number       Type             X           Y           Z
 ---------------------------------------------------------------------
      1         14           0        0.516734    1.650058    3.058341
      2          6           0        4.498535    0.636491    1.353122
      3          6           0        4.716133   -0.769273    1.343602
      4          6           0        3.720490   -1.670154    1.765681
      5          1           0        2.884401   -1.327650    2.060491
      6          6           0        3.921099   -3.040856    1.764285
      7          6           0        2.912249   -3.951246    2.214563
      8          1           0        2.077228   -3.613599    2.516320
      9          6           0        3.133748   -5.289477    2.215672
     10          1           0        2.452551   -5.879090    2.516142
     11          6           0        4.377987   -5.817208    1.770246
     12          1           0        4.515546   -6.757064    1.765675
     13          6           0        5.365736   -4.995083    1.351033
     14          1           0        6.193642   -5.366033    1.068828
     15          6           0        5.184092   -3.572552    1.326447
     16          6           0        6.172071   -2.696513    0.905451
     17          1           0        7.003701   -3.048440    0.609489
     18          6           0        5.983026   -1.296676    0.899818
     19          6           0        3.237013    1.125448    1.814543
     20          6           0        2.156064    1.447578    2.248029
     21          6           0        0.788584    1.955542    4.865360
     22          1           0        1.163442    1.149865    5.278679
     23          1           0       -0.066698    2.172715    5.291691
     24          1           0        1.411118    2.702333    4.981011
     25          6           0       -0.391447    0.042148    2.861010
     26          1           0       -0.581105   -0.111438    1.911552
     27          1           0       -1.233574    0.078825    3.361219
     28          1           0        0.161233   -0.689545    3.205742
     29          6           0       -0.422389    3.043404    2.275798
     30          1           0        0.071905    3.880874    2.399560
     31          1           0       -1.305741    3.119256    2.695015
     32          1           0       -0.529828    2.867108    1.317116
     33         14           0       10.978927   -1.418957   -1.232835
     34          6           0        6.997126   -0.405390    0.472384
     35          6           0        6.779528    1.000374    0.481903
     36          6           0        7.775172    1.901255    0.059824
     37          1           0        8.611260    1.558751   -0.234985
     38          6           0        7.574562    3.271957    0.061221
     39          6           0        8.583412    4.182347   -0.389057
     40          1           0        9.418433    3.844700   -0.690814
     41          6           0        8.361914    5.520578   -0.390166
     42          1           0        9.043110    6.110191   -0.690636
     43          6           0        7.117675    6.048309    0.055260
     44          1           0        6.980115    6.988165    0.059831
     45          6           0        6.129925    5.226184    0.474473
     46          1           0        5.302019    5.597134    0.756678
     47          6           0        6.311570    3.803653    0.499059
     48          6           0        5.323590    2.927614    0.920055
     49          1           0        4.491960    3.279541    1.216017
     50          6           0        5.512635    1.527777    0.925687
     51          6           0        8.258648   -0.894347    0.010963
     52          6           0        9.339597   -1.216477   -0.422524
     53          6           0       10.707077   -1.724441   -3.039855
     54          1           0       10.332219   -0.918764   -3.453174
     55          1           0       11.562359   -1.941614   -3.466185
     56          1           0       10.084543   -2.471232   -3.155505
     57          6           0       11.887108    0.188953   -1.035504
     58          1           0       12.076766    0.342539   -0.086047
     59          1           0       12.729236    0.152276   -1.535714
     60          1           0       11.334429    0.920646   -1.380237
     61          6           0       11.918051   -2.812303   -0.450293
     62          1           0       11.423756   -3.649773   -0.574054
     63          1           0       12.801402   -2.888155   -0.869509
     64          1           0       12.025489   -2.636007    0.508389
     65         14           0      -10.978888    1.418959    1.232827
     66          6           0       -6.997157    0.405387   -0.472395
     67          6           0       -6.779589   -1.000397   -0.481895
     68          6           0       -7.775128   -1.901224   -0.059844
     69          1           0       -8.611282   -1.558739    0.234952
     70          6           0       -7.574539   -3.271937   -0.061228
     71          6           0       -8.583372   -4.182331    0.389056
     72          1           0       -9.418472   -3.844691    0.690782
     73          6           0       -8.361885   -5.520583    0.390188
     74          1           0       -9.043060   -6.110165    0.690624
     75          6           0       -7.117632   -6.048294   -0.055249
     76          1           0       -6.980089   -6.988189   -0.059775
     77          6           0       -6.129906   -5.226180   -0.474470
     78          1           0       -5.301979   -5.597136   -0.756651
     79          6           0       -6.311597   -3.803648   -0.499087
     80          6           0       -5.323583   -2.927626   -0.920024
     81          1           0       -4.492005   -3.279548   -1.216036
     82          6           0       -5.512670   -1.527805   -0.925658
     83          6           0       -8.258638    0.894331   -0.011006
     84          6           0       -9.339598    1.216498    0.422505
     85          6           0      -10.707118    1.724444    3.039907
     86          1           0      -10.332226    0.918742    3.453202
     87          1           0      -11.562322    1.941642    3.466211
     88          1           0      -10.084583    2.471226    3.155505
     89          6           0      -11.887087   -0.188989    1.035513
     90          1           0      -12.076739   -0.342565    0.086025
     91          1           0      -12.729223   -0.152212    1.535712
     92          1           0      -11.334463   -0.920693    1.380223
     93          6           0      -11.918039    2.812328    0.450328
     94          1           0      -11.423733    3.649823    0.574054
     95          1           0      -12.801421    2.888177    0.869475
     96          1           0      -12.025518    2.635995   -0.508423
     97         14           0       -0.516744   -1.650065   -3.058344
     98          6           0       -4.498577   -0.636495   -1.353143
     99          6           0       -4.716161    0.769273   -1.343609
    100          6           0       -3.720501    1.670152   -1.765686
    101          1           0       -2.884442    1.327649   -2.060512
    102          6           0       -3.921087    3.040829   -1.764302
    103          6           0       -2.912273    3.951271   -2.214555
    104          1           0       -2.077255    3.613595   -2.516335
    105          6           0       -3.133751    5.289443   -2.215694
    106          1           0       -2.452576    5.879095   -2.516141
    107          6           0       -4.377994    5.817172   -1.770279
    108          1           0       -4.515583    6.757095   -1.765669
    109          6           0       -5.365749    4.995116   -1.351010
    110          1           0       -6.193679    5.366066   -1.068821
    111          6           0       -5.184130    3.572552   -1.326466
    112          6           0       -6.172069    2.696511   -0.905455
    113          1           0       -7.003739    3.048463   -0.609487
    114          6           0       -5.983001    1.296697   -0.899783
    115          6           0       -3.236985   -1.125447   -1.814529
    116          6           0       -2.156041   -1.447574   -2.248015
    117          6           0       -0.788557   -1.955545   -4.865343
    118          1           0       -1.163429   -1.149862   -5.278673
    119          1           0        0.066674   -2.172723   -5.291701
    120          1           0       -1.411158   -2.702333   -4.981031
    121          6           0        0.391445   -0.042149   -2.861007
    122          1           0        0.581110    0.111436   -1.911546
    123          1           0        1.233579   -0.078820   -3.361215
    124          1           0       -0.161271    0.689543   -3.205755
    125          6           0        0.422384   -3.043406   -2.275805
    126          1           0       -0.071908   -3.880878   -2.399560
    127          1           0        1.305694   -3.119259   -2.695031
    128          1           0        0.529793   -2.867113   -1.317133
 ---------------------------------------------------------------------
 Rotational constants (GHZ):      0.0430533      0.0110648      0.0098559
 Leave Link  202 at Thu Jan  5 21:29:22 2012, MaxMem= 1073741824 cpu:       0.0
 (Enter /apps/gaussian/g09/g09/l301.exe)
 Standard basis: 6-31G(d,p) (6D, 7F)
 Ernie: Thresh=  0.10000D-02 Tol=  0.10000D-05 Strict=F.
 There are  1336 symmetry adapted basis functions of A   symmetry.
 Integral buffers will be    131072 words long.
 Raffenetti 2 integral format.
 Two-electron integral symmetry is turned on.
  1336 basis functions,  2420 primitive gaussians,  1336 cartesian basis functions
   250 alpha electrons      250 beta electrons
       nuclear repulsion energy      9702.4474542736 Hartrees.
 IExCor=  402 DFT=T Ex+Corr=B3LYP ExCW=0 ScaHFX=  0.200000
 ScaDFX=  0.800000  0.720000  1.000000  0.810000 ScalE2=  1.000000  1.000000
 IRadAn=      0 IRanWt=     -1 IRanGd=            0 ICorTp=0
 NAtoms=  128 NActive=  128 NUniq=  128 SFac= 7.50D-01 NAtFMM=   80 NAOKFM=T Big=T
 Leave Link  301 at Thu Jan  5 21:29:22 2012, MaxMem= 1073741824 cpu:       0.3
 (Enter /apps/gaussian/g09/g09/l302.exe)
 NPDir=0 NMtPBC=     1 NCelOv=     1 NCel=       1 NClECP=     1 NCelD=      1
         NCelK=      1 NCelE2=     1 NClLst=     1 CellRange=     0.0.
 One-electron integrals computed using PRISM.
 NBasis=  1336 RedAO= T  NBF=  1336
 NBsUse=  1336 1.00D-06 NBFU=  1336
 Precomputing XC quadrature grid using
 IXCGrd= 2 IRadAn=           0 IRanWt=          -1 IRanGd=           0 AccXCQ= 1.00D-10.
 NRdTot=    8434 NPtTot=     1080908 NUsed=     1141623 NTot=     1141655
 NSgBfM=   872   875   881   887   891 NAtAll=   128   114.
 Leave Link  302 at Thu Jan  5 21:29:30 2012, MaxMem= 1073741824 cpu:      61.8
 (Enter /apps/gaussian/g09/g09/l308.exe)
 Leave Link  308 at Thu Jan  5 21:29:30 2012, MaxMem= 1073741824 cpu:       3.9
 (Enter /apps/gaussian/g09/g09/l303.exe)
 DipDrv:  MaxL=1.
 Leave Link  303 at Thu Jan  5 21:29:30 2012, MaxMem= 1073741824 cpu:       2.5
 (Enter /apps/gaussian/g09/g09/l401.exe)
 Harris functional with IExCor=  402 diagonalized for initial guess.
 ExpMin= 7.78D-02 ExpMax= 1.61D+04 ExpMxC= 2.43D+03 IAcc=2 IRadAn=         0 AccDes= 0.00D+00
 HarFok:  IExCor=  402 AccDes= 0.00D+00 IRadAn=         0 IDoV= 1
 ScaDFX=  1.000000  1.000000  1.000000  1.000000
 FoFCou: FMM=F IPFlag=           0 FMFlag=      100000 FMFlg1=        2001
         NFxFlg=           0 DoJE=T BraDBF=F KetDBF=T FulRan=T
         Omega=  0.000000  0.000000  1.000000  0.000000  0.000000 ICntrl=     500 IOpCl=  0
         NMat0=    1 NMatS0=    1 NMatT0=    0 NMatD0=    1 NMtDS0=    0 NMtDT0=    0
         I1Cent=           4 NGrid=           0.
 Petite list used in FoFCou.
 Harris En= -3633.94605738818    
 Initial guess orbital symmetries:
       Occupied  (A) (A) (A) (A) (A) (A) (A) (A) (A) (A) (A) (A)
                 (A) (A) (A) (A) (A) (A) (A) (A) (A) (A) (A) (A)
                 (A) (A) (A) (A) (A) (A) (A) (A) (A) (A) (A) (A)
                 (A) (A) (A) (A) (A) (A) (A) (A) (A) (A) (A) (A)
                 (A) (A) (A) (A) (A) (A) (A) (A) (A) (A) (A) (A)
                 (A) (A) (A) (A) (A) (A) (A) (A) (A) (A) (A) (A)
                 (A) (A) (A) (A) (A) (A) (A) (A) (A) (A) (A) (A)
                 (A) (A) (A) (A) (A) (A) (A) (A) (A) (A) (A) (A)
                 (A) (A) (A) (A) (A) (A) (A) (A) (A) (A) (A) (A)
                 (A) (A) (A) (A) (A) (A) (A) (A) (A) (A) (A) (A)
                 (A) (A) (A) (A) (A) (A) (A) (A) (A) (A) (A) (A)
                 (A) (A) (A) (A) (A) (A) (A) (A) (A) (A) (A) (A)
                 (A) (A) (A) (A) (A) (A) (A) (A) (A) (A) (A) (A)
                 (A) (A) (A) (A) (A) (A) (A) (A) (A) (A) (A) (A)
                 (A) (A) (A) (A) (A) (A) (A) (A) (A) (A) (A) (A)
                 (A) (A) (A) (A) (A) (A) (A) (A) (A) (A) (A) (A)
                 (A) (A) (A) (A) (A) (A) (A) (A) (A) (A) (A) (A)
                 (A) (A) (A) (A) (A) (A) (A) (A) (A) (A) (A) (A)
                 (A) (A) (A) (A) (A) (A) (A) (A) (A) (A) (A) (A)
                 (A) (A) (A) (A) (A) (A) (A) (A) (A) (A) (A) (A)
                 (A) (A) (A) (A) (A) (A) (A) (A) (A) (A)
       Virtual   (A) (A) (A) (A) (A) (A) (A) (A) (A) (A) (A) (A)
                 (A) (A) (A) (A) (A) (A) (A) (A) (A) (A) (A) (A)
                 (A) (A) (A) (A) (A) (A) (A) (A) (A) (A) (A) (A)
                 (A) (A) (A) (A) (A) (A) (A) (A) (A) (A) (A) (A)
                 (A) (A) (A) (A) (A) (A) (A) (A) (A) (A) (A) (A)
                 (A) (A) (A) (A) (A) (A) (A) (A) (A) (A) (A) (A)
                 (A) (A) (A) (A) (A) (A) (A) (A) (A) (A) (A) (A)
                 (A) (A) (A) (A) (A) (A) (A) (A) (A) (A) (A) (A)
                 (A) (A) (A) (A) (A) (A) (A) (A) (A) (A) (A) (A)
                 (A) (A) (A) (A) (A) (A) (A) (A) (A) (A) (A) (A)
                 (A) (A) (A) (A) (A) (A) (A) (A) (A) (A) (A) (A)
                 (A) (A) (A) (A) (A) (A) (A) (A) (A) (A) (A) (A)
                 (A) (A) (A) (A) (A) (A) (A) (A) (A) (A) (A) (A)
                 (A) (A) (A) (A) (A) (A) (A) (A) (A) (A) (A) (A)
                 (A) (A) (A) (A) (A) (A) (A) (A) (A) (A) (A) (A)
                 (A) (A) (A) (A) (A) (A) (A) (A) (A) (A) (A) (A)
                 (A) (A) (A) (A) (A) (A) (A) (A) (A) (A) (A) (A)
                 (A) (A) (A) (A) (A) (A) (A) (A) (A) (A) (A) (A)
                 (A) (A) (A) (A) (A) (A) (A) (A) (A) (A) (A) (A)
                 (A) (A) (A) (A) (A) (A) (A) (A) (A) (A) (A) (A)
                 (A) (A) (A) (A) (A) (A) (A) (A) (A) (A) (A) (A)
                 (A) (A) (A) (A) (A) (A) (A) (A) (A) (A) (A) (A)
                 (A) (A) (A) (A) (A) (A) (A) (A) (A) (A) (A) (A)
                 (A) (A) (A) (A) (A) (A) (A) (A) (A) (A) (A) (A)
                 (A) (A) (A) (A) (A) (A) (A) (A) (A) (A) (A) (A)
                 (A) (A) (A) (A) (A) (A) (A) (A) (A) (A) (A) (A)
                 (A) (A) (A) (A) (A) (A) (A) (A) (A) (A) (A) (A)
                 (A) (A) (A) (A) (A) (A) (A) (A) (A) (A) (A) (A)
                 (A) (A) (A) (A) (A) (A) (A) (A) (A) (A) (A) (A)
                 (A) (A) (A) (A) (A) (A) (A) (A) (A) (A) (A) (A)
                 (A) (A) (A) (A) (A) (A) (A) (A) (A) (A) (A) (A)
                 (A) (A) (A) (A) (A) (A) (A) (A) (A) (A) (A) (A)
                 (A) (A) (A) (A) (A) (A) (A) (A) (A) (A) (A) (A)
                 (A) (A) (A) (A) (A) (A) (A) (A) (A) (A) (A) (A)
                 (A) (A) (A) (A) (A) (A) (A) (A) (A) (A) (A) (A)
                 (A) (A) (A) (A) (A) (A) (A) (A) (A) (A) (A) (A)
                 (A) (A) (A) (A) (A) (A) (A) (A) (A) (A) (A) (A)
                 (A) (A) (A) (A) (A) (A) (A) (A) (A) (A) (A) (A)
                 (A) (A) (A) (A) (A) (A) (A) (A) (A) (A) (A) (A)
                 (A) (A) (A) (A) (A) (A) (A) (A) (A) (A) (A) (A)
                 (A) (A) (A) (A) (A) (A) (A) (A) (A) (A) (A) (A)
                 (A) (A) (A) (A) (A) (A) (A) (A) (A) (A) (A) (A)
                 (A) (A) (A) (A) (A) (A) (A) (A) (A) (A) (A) (A)
                 (A) (A) (A) (A) (A) (A) (A) (A) (A) (A) (A) (A)
                 (A) (A) (A) (A) (A) (A) (A) (A) (A) (A) (A) (A)
                 (A) (A) (A) (A) (A) (A) (A) (A) (A) (A) (A) (A)
                 (A) (A) (A) (A) (A) (A) (A) (A) (A) (A) (A) (A)
                 (A) (A) (A) (A) (A) (A) (A) (A) (A) (A) (A) (A)
                 (A) (A) (A) (A) (A) (A) (A) (A) (A) (A) (A) (A)
                 (A) (A) (A) (A) (A) (A) (A) (A) (A) (A) (A) (A)
                 (A) (A) (A) (A) (A) (A) (A) (A) (A) (A) (A) (A)
                 (A) (A) (A) (A) (A) (A) (A) (A) (A) (A) (A) (A)
                 (A) (A) (A) (A) (A) (A) (A) (A) (A) (A) (A) (A)
                 (A) (A) (A) (A) (A) (A) (A) (A) (A) (A) (A) (A)
                 (A) (A) (A) (A) (A) (A) (A) (A) (A) (A) (A) (A)
                 (A) (A) (A) (A) (A) (A) (A) (A) (A) (A) (A) (A)
                 (A) (A) (A) (A) (A) (A) (A) (A) (A) (A) (A) (A)
                 (A) (A) (A) (A) (A) (A) (A) (A) (A) (A) (A) (A)
                 (A) (A) (A) (A) (A) (A) (A) (A) (A) (A) (A) (A)
                 (A) (A) (A) (A) (A) (A) (A) (A) (A) (A) (A) (A)
                 (A) (A) (A) (A) (A) (A) (A) (A) (A) (A) (A) (A)
                 (A) (A) (A) (A) (A) (A) (A) (A) (A) (A) (A) (A)
                 (A) (A) (A) (A) (A) (A) (A) (A) (A) (A) (A) (A)
                 (A) (A) (A) (A) (A) (A) (A) (A) (A) (A) (A) (A)
                 (A) (A) (A) (A) (A) (A) (A) (A) (A) (A) (A) (A)
                 (A) (A) (A) (A) (A) (A) (A) (A) (A) (A) (A) (A)
                 (A) (A) (A) (A) (A) (A) (A) (A) (A) (A) (A) (A)
                 (A) (A) (A) (A) (A) (A) (A) (A) (A) (A) (A) (A)
                 (A) (A) (A) (A) (A) (A) (A) (A) (A) (A) (A) (A)
                 (A) (A) (A) (A) (A) (A) (A) (A) (A) (A) (A) (A)
                 (A) (A) (A) (A) (A) (A) (A) (A) (A) (A) (A) (A)
                 (A) (A) (A) (A) (A) (A) (A) (A) (A) (A) (A) (A)
                 (A) (A) (A) (A) (A) (A) (A) (A) (A) (A) (A) (A)
                 (A) (A) (A) (A) (A) (A) (A) (A) (A) (A) (A) (A)
                 (A) (A) (A) (A) (A) (A) (A) (A) (A) (A) (A) (A)
                 (A) (A) (A) (A) (A) (A) (A) (A) (A) (A) (A) (A)
                 (A) (A) (A) (A) (A) (A) (A) (A) (A) (A) (A) (A)
                 (A) (A) (A) (A) (A) (A) (A) (A) (A) (A) (A) (A)
                 (A) (A) (A) (A) (A) (A) (A) (A) (A) (A) (A) (A)
                 (A) (A) (A) (A) (A) (A) (A) (A) (A) (A) (A) (A)
                 (A) (A) (A) (A) (A) (A) (A) (A) (A) (A) (A) (A)
                 (A) (A) (A) (A) (A) (A) (A) (A) (A) (A) (A) (A)
                 (A) (A) (A) (A) (A) (A) (A) (A) (A) (A) (A) (A)
                 (A) (A) (A) (A) (A) (A) (A) (A) (A) (A) (A) (A)
                 (A) (A) (A) (A) (A) (A) (A) (A) (A) (A) (A) (A)
                 (A) (A) (A) (A) (A) (A) (A) (A) (A) (A) (A) (A)
                 (A) (A) (A) (A) (A) (A) (A) (A) (A) (A) (A) (A)
                 (A) (A) (A) (A) (A) (A) (A) (A) (A) (A) (A) (A)
                 (A) (A) (A) (A) (A) (A) (A) (A) (A) (A) (A) (A)
                 (A) (A) (A) (A) (A) (A) (A) (A) (A) (A) (A) (A)
                 (A) (A) (A) (A) (A) (A)
 The electronic state of the initial guess is 1-A.
 Leave Link  401 at Thu Jan  5 21:29:45 2012, MaxMem= 1073741824 cpu:     115.3
 (Enter /apps/gaussian/g09/g09/l502.exe)
 Closed shell SCF:
 Requested convergence on RMS density matrix=1.00D-08 within 128 cycles.
 Requested convergence on MAX density matrix=1.00D-06.
 Requested convergence on             energy=1.00D-06.
 No special actions if energy rises.
 Using DIIS extrapolation, IDIIS=  1040.
 Integral symmetry usage will be decided dynamically.
      1140458 words used for storage of precomputed grid.
 IEnd=     6534044 IEndB=     6534044 NGot=  1073741824 MDV=  1069010653
 LenX=  1069010653 LenY=  1067224421
 Fock matrices will be formed incrementally for  20 cycles.
 Integral accuracy reduced to 1.0D-05 until final iterations.

 Cycle   1  Pass 0  IDiag  1:
 FoFCou: FMM=T IPFlag=           0 FMFlag=      100000 FMFlg1=        2001
         NFxFlg=           0 DoJE=F BraDBF=F KetDBF=F FulRan=T
         Omega=  0.000000  0.000000  1.000000  0.000000  0.000000 ICntrl=       0 IOpCl=  0
         NMat0=    1 NMatS0=    1 NMatT0=    0 NMatD0=    1 NMtDS0=    0 NMtDT0=    0
         I1Cent=           0 NGrid=           0.
 Symmetry not used in FoFCou.
 FMM levels:  10  Number of levels for PrismC:   9
 E= -3629.27836986245    
 DIIS: error= 4.69D-02 at cycle   1 NSaved=   1.
 NSaved= 1 IEnMin= 1 EnMin= -3629.27836986245     IErMin= 1 ErrMin= 4.69D-02
 ErrMax= 4.69D-02 EMaxC= 1.00D-01 BMatC= 2.93D+00 BMatP= 2.93D+00
 IDIUse=3 WtCom= 5.31D-01 WtEn= 4.69D-01
 Coeff-Com:  0.100D+01
 Coeff-En:   0.100D+01
 Coeff:      0.100D+01
 Gap=     0.081 Goal=   None    Shift=    0.000
 GapD=    0.081 DampG=0.500 DampE=0.500 DampFc=0.2500 IDamp=-1.
 Damping current iteration by 2.50D-01
 RMSDP=3.09D-03 MaxDP=2.23D-01              OVMax= 3.08D-01

 Cycle   2  Pass 0  IDiag  1:
 RMSU=  5.11D-04    CP:  9.72D-01
 E= -3630.37016871779     Delta-E=       -1.091798855341 Rises=F Damp=T
 DIIS: error= 2.68D-02 at cycle   2 NSaved=   2.
 NSaved= 2 IEnMin= 2 EnMin= -3630.37016871779     IErMin= 2 ErrMin= 2.68D-02
 ErrMax= 2.68D-02 EMaxC= 1.00D-01 BMatC= 7.95D-01 BMatP= 2.93D+00
 IDIUse=3 WtCom= 7.32D-01 WtEn= 2.68D-01
 Coeff-Com: -0.927D+00 0.193D+01
 Coeff-En:   0.000D+00 0.100D+01
 Coeff:     -0.679D+00 0.168D+01
 Gap=     0.094 Goal=   None    Shift=    0.000
 RMSDP=1.52D-03 MaxDP=1.14D-01 DE=-1.09D+00 OVMax= 2.47D-01

 Cycle   3  Pass 0  IDiag  1:
 RMSU=  6.89D-04    CP:  9.06D-01  2.36D+00
 E= -3631.94149574065     Delta-E=       -1.571327022866 Rises=F Damp=F
 DIIS: error= 2.15D-02 at cycle   3 NSaved=   3.
 NSaved= 3 IEnMin= 3 EnMin= -3631.94149574065     IErMin= 3 ErrMin= 2.15D-02
 ErrMax= 2.15D-02 EMaxC= 1.00D-01 BMatC= 3.18D-01 BMatP= 7.95D-01
 IDIUse=3 WtCom= 7.85D-01 WtEn= 2.15D-01
 Coeff-Com: -0.531D+00 0.114D+01 0.395D+00
 Coeff-En:   0.000D+00 0.000D+00 0.100D+01
 Coeff:     -0.417D+00 0.891D+00 0.525D+00
 Gap=     0.081 Goal=   None    Shift=    0.000
 RMSDP=7.93D-04 MaxDP=6.75D-02 DE=-1.57D+00 OVMax= 1.47D-01

 Cycle   4  Pass 0  IDiag  1:
 RMSU=  4.00D-04    CP:  9.10D-01  2.36D+00  4.30D-01
 E= -3632.08780713735     Delta-E=       -0.146311396698 Rises=F Damp=F
 DIIS: error= 1.87D-02 at cycle   4 NSaved=   4.
 NSaved= 4 IEnMin= 4 EnMin= -3632.08780713735     IErMin= 4 ErrMin= 1.87D-02
 ErrMax= 1.87D-02 EMaxC= 1.00D-01 BMatC= 2.04D-01 BMatP= 3.18D-01
 IDIUse=3 WtCom= 8.13D-01 WtEn= 1.87D-01
 Coeff-Com: -0.306D-01 0.143D+00 0.422D+00 0.466D+00
 Coeff-En:   0.000D+00 0.000D+00 0.411D+00 0.589D+00
 Coeff:     -0.249D-01 0.116D+00 0.420D+00 0.489D+00
 Gap=     0.073 Goal=   None    Shift=    0.000
 RMSDP=3.59D-04 MaxDP=3.44D-02 DE=-1.46D-01 OVMax= 6.96D-02

 Cycle   5  Pass 0  IDiag  1:
 RMSU=  8.08D-05    CP:  9.12D-01  2.25D+00  6.56D-01  5.65D-01
 E= -3632.31562111440     Delta-E=       -0.227813977050 Rises=F Damp=F
 DIIS: error= 1.43D-03 at cycle   5 NSaved=   5.
 NSaved= 5 IEnMin= 5 EnMin= -3632.31562111440     IErMin= 5 ErrMin= 1.43D-03
 ErrMax= 1.43D-03 EMaxC= 1.00D-01 BMatC= 3.58D-03 BMatP= 2.04D-01
 IDIUse=3 WtCom= 9.86D-01 WtEn= 1.43D-02
 Coeff-Com:  0.233D-01-0.200D-01 0.168D+00 0.244D+00 0.585D+00
 Coeff-En:   0.000D+00 0.000D+00 0.000D+00 0.000D+00 0.100D+01
 Coeff:      0.229D-01-0.198D-01 0.166D+00 0.240D+00 0.591D+00
 Gap=     0.072 Goal=   None    Shift=    0.000
 RMSDP=7.65D-05 MaxDP=8.87D-03 DE=-2.28D-01 OVMax= 1.09D-02

 Cycle   6  Pass 0  IDiag  1:
 RMSU=  3.52D-05    CP:  9.12D-01  2.27D+00  6.67D-01  5.67D-01  5.16D-01
 E= -3632.31860767423     Delta-E=       -0.002986559832 Rises=F Damp=F
 DIIS: error= 1.10D-03 at cycle   6 NSaved=   6.
 NSaved= 6 IEnMin= 6 EnMin= -3632.31860767423     IErMin= 6 ErrMin= 1.10D-03
 ErrMax= 1.10D-03 EMaxC= 1.00D-01 BMatC= 6.15D-04 BMatP= 3.58D-03
 IDIUse=3 WtCom= 9.89D-01 WtEn= 1.10D-02
 Coeff-Com:  0.135D-01-0.208D-01 0.497D-01 0.857D-01 0.348D+00 0.524D+00
 Coeff-En:   0.000D+00 0.000D+00 0.000D+00 0.000D+00 0.133D+00 0.867D+00
 Coeff:      0.133D-01-0.206D-01 0.492D-01 0.847D-01 0.346D+00 0.528D+00
 Gap=     0.072 Goal=   None    Shift=    0.000
 RMSDP=2.89D-05 MaxDP=2.18D-03 DE=-2.99D-03 OVMax= 6.96D-03

 Cycle   7  Pass 0  IDiag  1:
 RMSU=  1.19D-05    CP:  9.11D-01  2.27D+00  6.63D-01  5.75D-01  6.09D-01
                    CP:  6.00D-01
 E= -3632.31921783931     Delta-E=       -0.000610165078 Rises=F Damp=F
 DIIS: error= 2.10D-04 at cycle   7 NSaved=   7.
 NSaved= 7 IEnMin= 7 EnMin= -3632.31921783931     IErMin= 7 ErrMin= 2.10D-04
 ErrMax= 2.10D-04 EMaxC= 1.00D-01 BMatC= 8.45D-05 BMatP= 6.15D-04
 IDIUse=3 WtCom= 9.98D-01 WtEn= 2.10D-03
 Coeff-Com:  0.299D-02-0.582D-02 0.872D-02 0.197D-01 0.129D+00 0.319D+00
 Coeff-Com:  0.527D+00
 Coeff-En:   0.000D+00 0.000D+00 0.000D+00 0.000D+00 0.000D+00 0.953D-01
 Coeff-En:   0.905D+00
 Coeff:      0.298D-02-0.581D-02 0.870D-02 0.196D-01 0.129D+00 0.318D+00
 Coeff:      0.528D+00
 Gap=     0.072 Goal=   None    Shift=    0.000
 RMSDP=1.02D-05 MaxDP=8.72D-04 DE=-6.10D-04 OVMax= 3.60D-03

 Cycle   8  Pass 0  IDiag  1:
 RMSU=  4.10D-06    CP:  9.11D-01  2.27D+00  6.64D-01  5.77D-01  6.20D-01
                    CP:  6.36D-01  5.39D-01
 E= -3632.31930041898     Delta-E=       -0.000082579665 Rises=F Damp=F
 DIIS: error= 1.76D-04 at cycle   8 NSaved=   8.
 NSaved= 8 IEnMin= 8 EnMin= -3632.31930041898     IErMin= 8 ErrMin= 1.76D-04
 ErrMax= 1.76D-04 EMaxC= 1.00D-01 BMatC= 8.43D-06 BMatP= 8.45D-05
 IDIUse=3 WtCom= 9.98D-01 WtEn= 1.76D-03
 Coeff-Com:  0.610D-03-0.162D-02 0.192D-02 0.602D-02 0.552D-01 0.164D+00
 Coeff-Com:  0.322D+00 0.452D+00
 Coeff-En:   0.000D+00 0.000D+00 0.000D+00 0.000D+00 0.000D+00 0.000D+00
 Coeff-En:   0.288D-02 0.997D+00
 Coeff:      0.609D-03-0.162D-02 0.192D-02 0.601D-02 0.551D-01 0.163D+00
 Coeff:      0.322D+00 0.453D+00
 Gap=     0.072 Goal=   None    Shift=    0.000
 RMSDP=5.49D-06 MaxDP=5.16D-04 DE=-8.26D-05 OVMax= 2.82D-03

 Initial convergence to 1.0D-05 achieved.  Increase integral accuracy.
 Cycle   9  Pass 1  IDiag  1:
 E= -3632.31875746086     Delta-E=        0.000542958118 Rises=F Damp=F
 DIIS: error= 2.82D-04 at cycle   1 NSaved=   1.
 NSaved= 1 IEnMin= 1 EnMin= -3632.31875746086     IErMin= 1 ErrMin= 2.82D-04
 ErrMax= 2.82D-04 EMaxC= 1.00D-01 BMatC= 1.92D-05 BMatP= 1.92D-05
 IDIUse=3 WtCom= 9.97D-01 WtEn= 2.82D-03
 Coeff-Com:  0.100D+01
 Coeff-En:   0.100D+01
 Coeff:      0.100D+01
 Gap=     0.072 Goal=   None    Shift=    0.000
 RMSDP=5.49D-06 MaxDP=5.16D-04 DE= 5.43D-04 OVMax= 5.13D-03

 Cycle  10  Pass 1  IDiag  1:
 RMSU=  8.36D-05    CP:  1.00D+00
 E= -3632.31872798067     Delta-E=        0.000029480185 Rises=F Damp=F
 DIIS: error= 4.33D-04 at cycle   2 NSaved=   2.
 NSaved= 2 IEnMin= 1 EnMin= -3632.31875746086     IErMin= 1 ErrMin= 2.82D-04
 ErrMax= 4.33D-04 EMaxC= 1.00D-01 BMatC= 3.67D-05 BMatP= 1.92D-05
 IDIUse=3 WtCom= 3.25D-01 WtEn= 6.75D-01
 Coeff-Com:  0.611D+00 0.389D+00
 Coeff-En:   0.741D+00 0.259D+00
 Coeff:      0.699D+00 0.301D+00
 Gap=     0.072 Goal=   None    Shift=    0.000
 RMSDP=7.54D-06 MaxDP=8.62D-04 DE= 2.95D-05 OVMax= 4.92D-03

 Cycle  11  Pass 1  IDiag  1:
 RMSU=  5.33D-06    CP:  1.00D+00  9.99D-01
 E= -3632.31877133759     Delta-E=       -0.000043356913 Rises=F Damp=F
 DIIS: error= 1.15D-04 at cycle   3 NSaved=   3.
 NSaved= 3 IEnMin= 3 EnMin= -3632.31877133759     IErMin= 3 ErrMin= 1.15D-04
 ErrMax= 1.15D-04 EMaxC= 1.00D-01 BMatC= 2.64D-06 BMatP= 1.92D-05
 IDIUse=3 WtCom= 9.99D-01 WtEn= 1.15D-03
 Coeff-Com:  0.833D-03 0.210D+00 0.789D+00
 Coeff-En:   0.000D+00 0.119D+00 0.881D+00
 Coeff:      0.832D-03 0.210D+00 0.789D+00
 Gap=     0.072 Goal=   None    Shift=    0.000
 RMSDP=1.86D-06 MaxDP=1.94D-04 DE=-4.34D-05 OVMax= 1.02D-03

 Cycle  12  Pass 1  IDiag  1:
 RMSU=  3.90D-07    CP:  1.00D+00  1.01D+00  8.01D-01
 E= -3632.31877457463     Delta-E=       -0.000003237039 Rises=F Damp=F
 DIIS: error= 6.80D-06 at cycle   4 NSaved=   4.
 NSaved= 4 IEnMin= 4 EnMin= -3632.31877457463     IErMin= 4 ErrMin= 6.80D-06
 ErrMax= 6.80D-06 EMaxC= 1.00D-01 BMatC= 9.61D-08 BMatP= 2.64D-06
 IDIUse=1 WtCom= 1.00D+00 WtEn= 0.00D+00
 Coeff-Com: -0.335D-02 0.122D+00 0.468D+00 0.413D+00
 Coeff:     -0.335D-02 0.122D+00 0.468D+00 0.413D+00
 Gap=     0.072 Goal=   None    Shift=    0.000
 RMSDP=3.00D-07 MaxDP=3.39D-05 DE=-3.24D-06 OVMax= 5.35D-05

 Cycle  13  Pass 1  IDiag  1:
 RMSU=  1.26D-07    CP:  1.00D+00  1.01D+00  7.98D-01  5.65D-01
 E= -3632.31877466902     Delta-E=       -0.000000094396 Rises=F Damp=F
 DIIS: error= 2.48D-06 at cycle   5 NSaved=   5.
 NSaved= 5 IEnMin= 5 EnMin= -3632.31877466902     IErMin= 5 ErrMin= 2.48D-06
 ErrMax= 2.48D-06 EMaxC= 1.00D-01 BMatC= 5.80D-09 BMatP= 9.61D-08
 IDIUse=1 WtCom= 1.00D+00 WtEn= 0.00D+00
 Coeff-Com: -0.205D-02 0.613D-01 0.236D+00 0.257D+00 0.447D+00
 Coeff:     -0.205D-02 0.613D-01 0.236D+00 0.257D+00 0.447D+00
 Gap=     0.072 Goal=   None    Shift=    0.000
 RMSDP=7.92D-08 MaxDP=1.13D-05 DE=-9.44D-08 OVMax= 2.42D-05

 Cycle  14  Pass 1  IDiag  1:
 RMSU=  4.07D-08    CP:  1.00D+00  1.01D+00  8.00D-01  5.69D-01  7.16D-01
 E= -3632.31877467462     Delta-E=       -0.000000005602 Rises=F Damp=F
 DIIS: error= 5.62D-07 at cycle   6 NSaved=   6.
 NSaved= 6 IEnMin= 6 EnMin= -3632.31877467462     IErMin= 6 ErrMin= 5.62D-07
 ErrMax= 5.62D-07 EMaxC= 1.00D-01 BMatC= 4.25D-10 BMatP= 5.80D-09
 IDIUse=1 WtCom= 1.00D+00 WtEn= 0.00D+00
 Coeff-Com: -0.861D-03 0.234D-01 0.906D-01 0.109D+00 0.263D+00 0.514D+00
 Coeff:     -0.861D-03 0.234D-01 0.906D-01 0.109D+00 0.263D+00 0.514D+00
 Gap=     0.072 Goal=   None    Shift=    0.000
 RMSDP=2.33D-08 MaxDP=3.31D-06 DE=-5.60D-09 OVMax= 7.28D-06

 Cycle  15  Pass 1  IDiag  1:
 RMSU=  1.39D-08    CP:  1.00D+00  1.01D+00  8.00D-01  5.73D-01  7.35D-01
                    CP:  8.28D-01
 E= -3632.31877467513     Delta-E=       -0.000000000507 Rises=F Damp=F
 DIIS: error= 4.44D-07 at cycle   7 NSaved=   7.
 NSaved= 7 IEnMin= 7 EnMin= -3632.31877467513     IErMin= 7 ErrMin= 4.44D-07
 ErrMax= 4.44D-07 EMaxC= 1.00D-01 BMatC= 7.57D-11 BMatP= 4.25D-10
 IDIUse=1 WtCom= 1.00D+00 WtEn= 0.00D+00
 Coeff-Com: -0.337D-03 0.863D-02 0.335D-01 0.431D-01 0.120D+00 0.340D+00
 Coeff-Com:  0.456D+00
 Coeff:     -0.337D-03 0.863D-02 0.335D-01 0.431D-01 0.120D+00 0.340D+00
 Coeff:      0.456D+00
 Gap=     0.072 Goal=   None    Shift=    0.000
 RMSDP=1.01D-08 MaxDP=8.84D-07 DE=-5.07D-10 OVMax= 2.93D-06

 Cycle  16  Pass 1  IDiag  1:
 RMSU=  5.10D-09    CP:  1.00D+00  1.01D+00  8.00D-01  5.74D-01  7.45D-01
                    CP:  8.32D-01  6.63D-01
 E= -3632.31877467515     Delta-E=       -0.000000000016 Rises=F Damp=F
 DIIS: error= 1.37D-07 at cycle   8 NSaved=   8.
 NSaved= 8 IEnMin= 8 EnMin= -3632.31877467515     IErMin= 8 ErrMin= 1.37D-07
 ErrMax= 1.37D-07 EMaxC= 1.00D-01 BMatC= 1.06D-11 BMatP= 7.57D-11
 IDIUse=1 WtCom= 1.00D+00 WtEn= 0.00D+00
 Coeff-Com: -0.294D-04 0.396D-03 0.167D-02 0.416D-02 0.215D-01 0.111D+00
 Coeff-Com:  0.299D+00 0.562D+00
 Coeff:     -0.294D-04 0.396D-03 0.167D-02 0.416D-02 0.215D-01 0.111D+00
 Coeff:      0.299D+00 0.562D+00
 Gap=     0.072 Goal=   None    Shift=    0.000
 RMSDP=3.77D-09 MaxDP=3.25D-07 DE=-1.64D-11 OVMax= 1.05D-06

 SCF Done:  E(RB3LYP) =  -3632.31877468     A.U. after   16 cycles
             Convg  =    0.3769D-08             -V/T =  2.0041
 KE= 3.617656285604D+03 PE=-2.789892625313D+04 EE= 1.094650373858D+04
 Leave Link  502 at Thu Jan  5 21:38:20 2012, MaxMem= 1073741824 cpu:    4117.5
 (Enter /apps/gaussian/g09/g09/l801.exe)
 ExpMin= 7.78D-02 ExpMax= 1.61D+04 ExpMxC= 2.43D+03 IAcc=3 IRadAn=         5 AccDes= 0.00D+00
 HarFok:  IExCor=  205 AccDes= 0.00D+00 IRadAn=         5 IDoV=-2
 ScaDFX=  1.000000  1.000000  1.000000  1.000000
 Largest valence mixing into a core orbital is  1.37D-04
 Largest core mixing into a valence orbital is  4.35D-05
 Range of M.O.s used for correlation:    85  1336
 NBasis=  1336 NAE=   250 NBE=   250 NFC=    84 NFV=     0
 NROrb=   1252 NOA=   166 NOB=   166 NVA=  1086 NVB=  1086

 **** Warning!!: The largest alpha MO coefficient is  0.10421993D+02


 **** Warning!!: The smallest alpha delta epsilon is  0.71866650D-01

 Leave Link  801 at Thu Jan  5 21:38:21 2012, MaxMem= 1073741824 cpu:      10.8
 (Enter /apps/gaussian/g09/g09/l914.exe)
 RHF ground state
 MDV=  1073741824 DFT=T DoStab=F Mixed=T DoRPA=T DoScal=F NonHer=T
 Would need an additional************ words for in-memory AO integral storage.
 Making orbital integer symmetry assigments:
 Orbital symmetries:
       Occupied  (A) (A) (A) (A) (A) (A) (A) (A) (A) (A) (A) (A)
                 (A) (A) (A) (A) (A) (A) (A) (A) (A) (A) (A) (A)
                 (A) (A) (A) (A) (A) (A) (A) (A) (A) (A) (A) (A)
                 (A) (A) (A) (A) (A) (A) (A) (A) (A) (A) (A) (A)
                 (A) (A) (A) (A) (A) (A) (A) (A) (A) (A) (A) (A)
                 (A) (A) (A) (A) (A) (A) (A) (A) (A) (A) (A) (A)
                 (A) (A) (A) (A) (A) (A) (A) (A) (A) (A) (A) (A)
                 (A) (A) (A) (A) (A) (A) (A) (A) (A) (A) (A) (A)
                 (A) (A) (A) (A) (A) (A) (A) (A) (A) (A) (A) (A)
                 (A) (A) (A) (A) (A) (A) (A) (A) (A) (A) (A) (A)
                 (A) (A) (A) (A) (A) (A) (A) (A) (A) (A) (A) (A)
                 (A) (A) (A) (A) (A) (A) (A) (A) (A) (A) (A) (A)
                 (A) (A) (A) (A) (A) (A) (A) (A) (A) (A) (A) (A)
                 (A) (A) (A) (A) (A) (A) (A) (A) (A) (A) (A) (A)
                 (A) (A) (A) (A) (A) (A) (A) (A) (A) (A) (A) (A)
                 (A) (A) (A) (A) (A) (A) (A) (A) (A) (A) (A) (A)
                 (A) (A) (A) (A) (A) (A) (A) (A) (A) (A) (A) (A)
                 (A) (A) (A) (A) (A) (A) (A) (A) (A) (A) (A) (A)
                 (A) (A) (A) (A) (A) (A) (A) (A) (A) (A) (A) (A)
                 (A) (A) (A) (A) (A) (A) (A) (A) (A) (A) (A) (A)
                 (A) (A) (A) (A) (A) (A) (A) (A) (A) (A)
       Virtual   (A) (A) (A) (A) (A) (A) (A) (A) (A) (A) (A) (A)
                 (A) (A) (A) (A) (A) (A) (A) (A) (A) (A) (A) (A)
                 (A) (A) (A) (A) (A) (A) (A) (A) (A) (A) (A) (A)
                 (A) (A) (A) (A) (A) (A) (A) (A) (A) (A) (A) (A)
                 (A) (A) (A) (A) (A) (A) (A) (A) (A) (A) (A) (A)
                 (A) (A) (A) (A) (A) (A) (A) (A) (A) (A) (A) (A)
                 (A) (A) (A) (A) (A) (A) (A) (A) (A) (A) (A) (A)
                 (A) (A) (A) (A) (A) (A) (A) (A) (A) (A) (A) (A)
                 (A) (A) (A) (A) (A) (A) (A) (A) (A) (A) (A) (A)
                 (A) (A) (A) (A) (A) (A) (A) (A) (A) (A) (A) (A)
                 (A) (A) (A) (A) (A) (A) (A) (A) (A) (A) (A) (A)
                 (A) (A) (A) (A) (A) (A) (A) (A) (A) (A) (A) (A)
                 (A) (A) (A) (A) (A) (A) (A) (A) (A) (A) (A) (A)
                 (A) (A) (A) (A) (A) (A) (A) (A) (A) (A) (A) (A)
                 (A) (A) (A) (A) (A) (A) (A) (A) (A) (A) (A) (A)
                 (A) (A) (A) (A) (A) (A) (A) (A) (A) (A) (A) (A)
                 (A) (A) (A) (A) (A) (A) (A) (A) (A) (A) (A) (A)
                 (A) (A) (A) (A) (A) (A) (A) (A) (A) (A) (A) (A)
                 (A) (A) (A) (A) (A) (A) (A) (A) (A) (A) (A) (A)
                 (A) (A) (A) (A) (A) (A) (A) (A) (A) (A) (A) (A)
                 (A) (A) (A) (A) (A) (A) (A) (A) (A) (A) (A) (A)
                 (A) (A) (A) (A) (A) (A) (A) (A) (A) (A) (A) (A)
                 (A) (A) (A) (A) (A) (A) (A) (A) (A) (A) (A) (A)
                 (A) (A) (A) (A) (A) (A) (A) (A) (A) (A) (A) (A)
                 (A) (A) (A) (A) (A) (A) (A) (A) (A) (A) (A) (A)
                 (A) (A) (A) (A) (A) (A) (A) (A) (A) (A) (A) (A)
                 (A) (A) (A) (A) (A) (A) (A) (A) (A) (A) (A) (A)
                 (A) (A) (A) (A) (A) (A) (A) (A) (A) (A) (A) (A)
                 (A) (A) (A) (A) (A) (A) (A) (A) (A) (A) (A) (A)
                 (A) (A) (A) (A) (A) (A) (A) (A) (A) (A) (A) (A)
                 (A) (A) (A) (A) (A) (A) (A) (A) (A) (A) (A) (A)
                 (A) (A) (A) (A) (A) (A) (A) (A) (A) (A) (A) (A)
                 (A) (A) (A) (A) (A) (A) (A) (A) (A) (A) (A) (A)
                 (A) (A) (A) (A) (A) (A) (A) (A) (A) (A) (A) (A)
                 (A) (A) (A) (A) (A) (A) (A) (A) (A) (A) (A) (A)
                 (A) (A) (A) (A) (A) (A) (A) (A) (A) (A) (A) (A)
                 (A) (A) (A) (A) (A) (A) (A) (A) (A) (A) (A) (A)
                 (A) (A) (A) (A) (A) (A) (A) (A) (A) (A) (A) (A)
                 (A) (A) (A) (A) (A) (A) (A) (A) (A) (A) (A) (A)
                 (A) (A) (A) (A) (A) (A) (A) (A) (A) (A) (A) (A)
                 (A) (A) (A) (A) (A) (A) (A) (A) (A) (A) (A) (A)
                 (A) (A) (A) (A) (A) (A) (A) (A) (A) (A) (A) (A)
                 (A) (A) (A) (A) (A) (A) (A) (A) (A) (A) (A) (A)
                 (A) (A) (A) (A) (A) (A) (A) (A) (A) (A) (A) (A)
                 (A) (A) (A) (A) (A) (A) (A) (A) (A) (A) (A) (A)
                 (A) (A) (A) (A) (A) (A) (A) (A) (A) (A) (A) (A)
                 (A) (A) (A) (A) (A) (A) (A) (A) (A) (A) (A) (A)
                 (A) (A) (A) (A) (A) (A) (A) (A) (A) (A) (A) (A)
                 (A) (A) (A) (A) (A) (A) (A) (A) (A) (A) (A) (A)
                 (A) (A) (A) (A) (A) (A) (A) (A) (A) (A) (A) (A)
                 (A) (A) (A) (A) (A) (A) (A) (A) (A) (A) (A) (A)
                 (A) (A) (A) (A) (A) (A) (A) (A) (A) (A) (A) (A)
                 (A) (A) (A) (A) (A) (A) (A) (A) (A) (A) (A) (A)
                 (A) (A) (A) (A) (A) (A) (A) (A) (A) (A) (A) (A)
                 (A) (A) (A) (A) (A) (A) (A) (A) (A) (A) (A) (A)
                 (A) (A) (A) (A) (A) (A) (A) (A) (A) (A) (A) (A)
                 (A) (A) (A) (A) (A) (A) (A) (A) (A) (A) (A) (A)
                 (A) (A) (A) (A) (A) (A) (A) (A) (A) (A) (A) (A)
                 (A) (A) (A) (A) (A) (A) (A) (A) (A) (A) (A) (A)
                 (A) (A) (A) (A) (A) (A) (A) (A) (A) (A) (A) (A)
                 (A) (A) (A) (A) (A) (A) (A) (A) (A) (A) (A) (A)
                 (A) (A) (A) (A) (A) (A) (A) (A) (A) (A) (A) (A)
                 (A) (A) (A) (A) (A) (A) (A) (A) (A) (A) (A) (A)
                 (A) (A) (A) (A) (A) (A) (A) (A) (A) (A) (A) (A)
                 (A) (A) (A) (A) (A) (A) (A) (A) (A) (A) (A) (A)
                 (A) (A) (A) (A) (A) (A) (A) (A) (A) (A) (A) (A)
                 (A) (A) (A) (A) (A) (A) (A) (A) (A) (A) (A) (A)
                 (A) (A) (A) (A) (A) (A) (A) (A) (A) (A) (A) (A)
                 (A) (A) (A) (A) (A) (A) (A) (A) (A) (A) (A) (A)
                 (A) (A) (A) (A) (A) (A) (A) (A) (A) (A) (A) (A)
                 (A) (A) (A) (A) (A) (A) (A) (A) (A) (A) (A) (A)
                 (A) (A) (A) (A) (A) (A) (A) (A) (A) (A) (A) (A)
                 (A) (A) (A) (A) (A) (A) (A) (A) (A) (A) (A) (A)
                 (A) (A) (A) (A) (A) (A) (A) (A) (A) (A) (A) (A)
                 (A) (A) (A) (A) (A) (A) (A) (A) (A) (A) (A) (A)
                 (A) (A) (A) (A) (A) (A) (A) (A) (A) (A) (A) (A)
                 (A) (A) (A) (A) (A) (A) (A) (A) (A) (A) (A) (A)
                 (A) (A) (A) (A) (A) (A) (A) (A) (A) (A) (A) (A)
                 (A) (A) (A) (A) (A) (A) (A) (A) (A) (A) (A) (A)
                 (A) (A) (A) (A) (A) (A) (A) (A) (A) (A) (A) (A)
                 (A) (A) (A) (A) (A) (A) (A) (A) (A) (A) (A) (A)
                 (A) (A) (A) (A) (A) (A) (A) (A) (A) (A) (A) (A)
                 (A) (A) (A) (A) (A) (A) (A) (A) (A) (A) (A) (A)
                 (A) (A) (A) (A) (A) (A) (A) (A) (A) (A) (A) (A)
                 (A) (A) (A) (A) (A) (A) (A) (A) (A) (A) (A) (A)
                 (A) (A) (A) (A) (A) (A) (A) (A) (A) (A) (A) (A)
                 (A) (A) (A) (A) (A) (A) (A) (A) (A) (A) (A) (A)
                 (A) (A) (A) (A) (A) (A) (A) (A) (A) (A) (A) (A)
                 (A) (A) (A) (A) (A) (A) (A) (A) (A) (A) (A) (A)
                 (A) (A) (A) (A) (A) (A) (A) (A) (A) (A) (A) (A)
                 (A) (A) (A) (A) (A) (A)
   100 initial guesses have been made.
 Convergence on wavefunction:    0.001000000000000
 Davidson Disk Diagonalization:  ConvIn= 1.00D-03 SkipCon=T Conv= 1.00D-03.
 Max sub-space:   400 roots to seek:   100 dimension of matrix: 360552
 Iteration     1 Dimension   100 NMult   100
 Cannot handle 2e integral symmetry, ISym2E=1.
 CISAX:  IP=  8 NPass=   4 NMax=    25.
 CISAX will form    25 AO SS matrices at one time.
 NMat=    25 NSing=    25.
 FoFCou: FMM=T IPFlag=           0 FMFlag=      100000 FMFlg1=        2001
         NFxFlg=           0 DoJE=F BraDBF=F KetDBF=F FulRan=T
         Omega=  0.000000  0.000000  1.000000  0.000000  0.000000 ICntrl=       0 IOpCl=  0
         NMat0=   25 NMatS0=   25 NMatT0=    0 NMatD0=   25 NMtDS0=    0 NMtDT0=    0
         I1Cent=           0 NGrid=           0.
 Symmetry not used in FoFCou.
 FMM levels:  10  Number of levels for PrismC:   9
 NMat=    25 NSing=    25.
 NMat=    25 NSing=    25.
 NMat=    25 NSing=    25.
 Cannot handle 2e integral symmetry, ISym2E=1.
 CISAX:  IP=  8 NPass=   4 NMax=    25.
 CISAX will form    25 AO SS matrices at one time.
 NMat=    25 NSing=    25.
 NMat=    25 NSing=    25.
 NMat=    25 NSing=    25.
 NMat=    25 NSing=    25.
 New state      2 was old state      4
 New state      3 was old state     16
 New state      4 was old state      3
 New state      5 was old state      7
 New state      6 was old state      8
 New state      7 was old state      5
 New state      8 was old state      6
 New state      9 was old state     13
 New state     10 was old state     14
 New state     11 was old state     20
 New state     12 was old state     19
 New state     13 was old state     12
 New state     14 was old state     11
 No map to state     16
 New state     17 was old state     10
 New state     18 was old state      9
 New state     19 was old state     17
 New state     20 was old state     18
 No map to state     21
 No map to state     22
 New state     23 was old state     21
 New state     24 was old state     22
 No map to state     25
 Excitation Energies [eV] at current iteration:
 Root      1 :     1.715115653181817
 Root      2 :     1.715278817368502
 Root      3 :     2.217879098762505
 Root      4 :     2.234122969132714
 Root      5 :     2.801985027552973
 Root      6 :     2.802112068608843
 Root      7 :     3.027967073420187
 Root      8 :     3.028235075980232
 Root      9 :     3.240061484271366
 Root     10 :     3.240784386228143
 Root     11 :     3.263801406544299
 Root     12 :     3.264487002457972
 Root     13 :     3.416384333282229
 Root     14 :     3.416390149108572
 Root     15 :     3.493098707739770
 Root     16 :     3.493265068752692
 Root     17 :     3.545047700542122
 Root     18 :     3.546098819121152
 Root     19 :     3.594025026093093
 Root     20 :     3.594144445544240
 Root     21 :     3.769162781360597
 Root     22 :     3.769193590517185
 Root     23 :     3.833985202521323
 Root     24 :     3.834124339734739
 Root     25 :     3.835657273300507
 Iteration     2 Dimension   150 NMult   150
 Cannot handle 2e integral symmetry, ISym2E=1.
 CISAX:  IP=  8 NPass=   2 NMax=    25.
 CISAX will form    25 AO SS matrices at one time.
 NMat=    25 NSing=    25.
 NMat=    25 NSing=    25.
 Cannot handle 2e integral symmetry, ISym2E=1.
 CISAX:  IP=  8 NPass=   2 NMax=    25.
 CISAX will form    25 AO SS matrices at one time.
 NMat=    25 NSing=    25.
 NMat=    25 NSing=    25.
 Root      1 not converged, maximum delta is    0.092335195131890
 Root      2 not converged, maximum delta is    0.097711975786594
 Root      3 not converged, maximum delta is    0.072351224585194
 Root      4 not converged, maximum delta is    0.053149081645026
 Root      5 not converged, maximum delta is    0.095266677079668
 Root      6 not converged, maximum delta is    0.098441071058111
 Root      7 not converged, maximum delta is    0.003246536399719
 Root      8 not converged, maximum delta is    0.003169599723731
 Root      9 not converged, maximum delta is    0.067694268014108
 Root     10 not converged, maximum delta is    0.114730820581936
 Root     11 not converged, maximum delta is    0.152430242346457
 Root     12 not converged, maximum delta is    0.068974276260750
 New state     13 was old state     17
 Root     13 not converged, maximum delta is    0.065893770884123
 New state     14 was old state     18
 Root     14 not converged, maximum delta is    0.068408551070569
 New state     15 was old state     13
 Root     15 not converged, maximum delta is    0.121294979400553
 New state     16 was old state     14
 Root     16 not converged, maximum delta is    0.116969799523829
 New state     17 was old state     15
 Root     17 not converged, maximum delta is    0.003748182245029
 New state     18 was old state     16
 Root     18 not converged, maximum delta is    0.003737662325517
 Root     19 not converged, maximum delta is    0.003226208875703
 Root     20 not converged, maximum delta is    0.003243320269070
 Root     21 not converged, maximum delta is    0.190450603911753
 Root     22 not converged, maximum delta is    0.189324699751173
 No map to state     23
 New state     24 was old state     25
 Root     24 not converged, maximum delta is    0.034759970651803
 New state     25 was old state     23
 Root     25 not converged, maximum delta is    0.403617377790348
 Excitation Energies [eV] at current iteration:
 Root      1 :     1.715027587907979   Change is   -0.000088065273838
 Root      2 :     1.715210661558815   Change is   -0.000068155809686
 Root      3 :     1.753137911655645   Change is   -0.464741187106861
 Root      4 :     1.761921214234408   Change is   -0.472201754898306
 Root      5 :     2.736905658602819   Change is   -0.065079368950153
 Root      6 :     2.737026005488658   Change is   -0.065086063120185
 Root      7 :     3.027718022843868   Change is   -0.000249050576319
 Root      8 :     3.027986016004780   Change is   -0.000249059975453
 Root      9 :     3.195326688213958   Change is   -0.044734796057407
 Root     10 :     3.196485053944912   Change is   -0.044299332283231
 Root     11 :     3.205285218626604   Change is   -0.058516187917695
 Root     12 :     3.205714429967614   Change is   -0.058772572490357
 Root     13 :     3.219642754886886   Change is   -0.325404945655236
 Root     14 :     3.219963780603721   Change is   -0.326135038517431
 Root     15 :     3.416105522069250   Change is   -0.000278811212979
 Root     16 :     3.416111153409184   Change is   -0.000278995699388
 Root     17 :     3.492831605511164   Change is   -0.000267102228606
 Root     18 :     3.492997857871903   Change is   -0.000267210880789
 Root     19 :     3.593793625035874   Change is   -0.000231401057218
 Root     20 :     3.593913076884833   Change is   -0.000231368659407
 Root     21 :     3.730739561134440   Change is   -0.038423220226157
 Root     22 :     3.733279479437911   Change is   -0.035914111079274
 Root     23 :     3.753029474472025
 Root     24 :     3.792539910513308   Change is   -0.043117362787198
 Root     25 :     3.828105812482963   Change is   -0.005879390038360
 Iteration     3 Dimension   200 NMult   200
 Cannot handle 2e integral symmetry, ISym2E=1.
 CISAX:  IP=  8 NPass=   2 NMax=    25.
 CISAX will form    25 AO SS matrices at one time.
 NMat=    25 NSing=    25.
 NMat=    25 NSing=    25.
 Cannot handle 2e integral symmetry, ISym2E=1.
 CISAX:  IP=  8 NPass=   2 NMax=    25.
 CISAX will form    25 AO SS matrices at one time.
 NMat=    25 NSing=    25.
 NMat=    25 NSing=    25.
 Root      1 not converged, maximum delta is    0.042705101529373
 Root      2 not converged, maximum delta is    0.044224463351233
 Root      3 not converged, maximum delta is    0.012696968167291
 Root      4 not converged, maximum delta is    0.004944456316694
 Root      5 not converged, maximum delta is    0.014278049366338
 Root      6 not converged, maximum delta is    0.014867000116751
 Root      7 has converged.
 Root      8 has converged.
 New state      9 was old state     10
 Root      9 not converged, maximum delta is    0.021834821539455
 New state     10 was old state      9
 Root     10 not converged, maximum delta is    0.015883110676110
 Root     11 not converged, maximum delta is    0.037427639520525
 Root     12 not converged, maximum delta is    0.024641787006354
 Root     13 not converged, maximum delta is    0.063832676890071
 Root     14 not converged, maximum delta is    0.061241337043987
 Root     15 not converged, maximum delta is    0.003339625320002
 Root     16 not converged, maximum delta is    0.003459755845462
 Root     17 not converged, maximum delta is    0.001516816756973
 Root     18 not converged, maximum delta is    0.001505515152249
 Root     19 has converged.
 Root     20 has converged.
 New state     21 was old state     23
 Root     21 not converged, maximum delta is    0.246814451885069
 New state     22 was old state     25
 Root     22 not converged, maximum delta is    0.341162353127469
 New state     23 was old state     21
 Root     23 not converged, maximum delta is    0.218932798128783
 New state     24 was old state     22
 Root     24 not converged, maximum delta is    0.131119167824028
 New state     25 was old state     24
 Root     25 not converged, maximum delta is    0.025629411866180
 Excitation Energies [eV] at current iteration:
 Root      1 :     1.714992910236167   Change is   -0.000034677671812
 Root      2 :     1.715199884977368   Change is   -0.000010776581447
 Root      3 :     1.740253366530280   Change is   -0.012884545125365
 Root      4 :     1.748866300089342   Change is   -0.013054914145066
 Root      5 :     2.731646961263356   Change is   -0.005258697339463
 Root      6 :     2.731779721252339   Change is   -0.005246284236320
 Root      7 :     3.027717745319151   Change is   -0.000000277524716
 Root      8 :     3.027985740278465   Change is   -0.000000275726315
 Root      9 :     3.187312068008351   Change is   -0.009172985936560
 Root     10 :     3.187685788023055   Change is   -0.007640900190903
 Root     11 :     3.199139959714026   Change is   -0.006145258912578
 Root     12 :     3.199952731629858   Change is   -0.005761698337756
 Root     13 :     3.202489067600310   Change is   -0.017153687286576
 Root     14 :     3.202705107090153   Change is   -0.017258673513568
 Root     15 :     3.416104943205777   Change is   -0.000000578863473
 Root     16 :     3.416110555486796   Change is   -0.000000597922388
 Root     17 :     3.492829688424242   Change is   -0.000001917086922
 Root     18 :     3.492995932378661   Change is   -0.000001925493242
 Root     19 :     3.593793066175718   Change is   -0.000000558860156
 Root     20 :     3.593912513012486   Change is   -0.000000563872347
 Root     21 :     3.680808963894849   Change is   -0.072220510577176
 Root     22 :     3.700810590302576   Change is   -0.127295222180387
 Root     23 :     3.732989618812844   Change is    0.002250057678403
 Root     24 :     3.734048455040882   Change is    0.000768975602971
 Root     25 :     3.790194100874715   Change is   -0.002345809638593
 Iteration     4 Dimension   242 NMult   242
 Cannot handle 2e integral symmetry, ISym2E=1.
 CISAX:  IP=  8 NPass=   2 NMax=    21.
 CISAX will form    21 AO SS matrices at one time.
 NMat=    21 NSing=    21.
 NMat=    21 NSing=    21.
 Cannot handle 2e integral symmetry, ISym2E=1.
 CISAX:  IP=  8 NPass=   2 NMax=    21.
 CISAX will form    21 AO SS matrices at one time.
 NMat=    21 NSing=    21.
 NMat=    21 NSing=    21.
 Root      1 not converged, maximum delta is    0.006071663048910
 Root      2 not converged, maximum delta is    0.006236385195696
 Root      3 not converged, maximum delta is    0.001949904924936
 Root      4 not converged, maximum delta is    0.001884909185702
 Root      5 not converged, maximum delta is    0.008711109480157
 Root      6 not converged, maximum delta is    0.009040735932676
 Root      7 has converged.
 Root      8 has converged.
 Root      9 not converged, maximum delta is    0.003318944418503
 Root     10 not converged, maximum delta is    0.003153557686612
 Root     11 not converged, maximum delta is    0.017929539084516
 Root     12 not converged, maximum delta is    0.002344111833915
 Root     13 not converged, maximum delta is    0.012181103605625
 Root     14 not converged, maximum delta is    0.004840487175704
 Root     15 has converged.
 Root     16 has converged.
 Root     17 has converged.
 Root     18 has converged.
 Root     19 has converged.
 Root     20 has converged.
 Root     21 not converged, maximum delta is    0.007832521257794
 Root     22 not converged, maximum delta is    0.058266038874937
 New state     23 was old state     24
 Root     23 not converged, maximum delta is    0.296979294265668
 New state     24 was old state     23
 Root     24 not converged, maximum delta is    0.301264720777848
 Root     25 not converged, maximum delta is    0.002070073440168
 Excitation Energies [eV] at current iteration:
 Root      1 :     1.714987099575885   Change is   -0.000005810660282
 Root      2 :     1.715198470711009   Change is   -0.000001414266359
 Root      3 :     1.738988735490648   Change is   -0.001264631039631
 Root      4 :     1.747537367267292   Change is   -0.001328932822051
 Root      5 :     2.731298276475350   Change is   -0.000348684788006
 Root      6 :     2.731438352814574   Change is   -0.000341368437765
 Root      7 :     3.027717736545621   Change is   -0.000000008773530
 Root      8 :     3.027985731477637   Change is   -0.000000008800828
 Root      9 :     3.186270899126218   Change is   -0.001041168882133
 Root     10 :     3.186848217403987   Change is   -0.000837570619068
 Root     11 :     3.198432001332660   Change is   -0.000707958381366
 Root     12 :     3.199313508604009   Change is   -0.000639223025849
 Root     13 :     3.201076915972815   Change is   -0.001412151627495
 Root     14 :     3.201293862029660   Change is   -0.001411245060493
 Root     15 :     3.416104859655475   Change is   -0.000000083550303
 Root     16 :     3.416110469195670   Change is   -0.000000086291126
 Root     17 :     3.492829489194702   Change is   -0.000000199229540
 Root     18 :     3.492995732780048   Change is   -0.000000199598613
 Root     19 :     3.593793044094545   Change is   -0.000000022081173
 Root     20 :     3.593912493841385   Change is   -0.000000019171101
 Root     21 :     3.674068756135416   Change is   -0.006740207759433
 Root     22 :     3.678214015406246   Change is   -0.022596574896330
 Root     23 :     3.732715478057760   Change is   -0.001332976983122
 Root     24 :     3.732778516175429   Change is   -0.000211102637414
 Root     25 :     3.789965679442727   Change is   -0.000228421431988
[...]
 Alpha virt. eigenvalues --    1.51236   1.52969   1.52980   1.54754   1.54754
 Alpha virt. eigenvalues --    1.55005   1.55007   1.55176   1.55183   1.55899
 Alpha virt. eigenvalues --    1.55903   1.57607   1.57609   1.58584   1.58595
 Alpha virt. eigenvalues --    1.59164   1.59166   1.59227   1.59232   1.59540
 Alpha virt. eigenvalues --    1.59549   1.59852   1.60021   1.60376   1.60391
 Alpha virt. eigenvalues --    1.61133   1.61170   1.61557   1.61711   1.61813
 Alpha virt. eigenvalues --    1.61814   1.63493   1.63505   1.66762   1.66767
 Alpha virt. eigenvalues --    1.67528   1.67542   1.70388   1.70423   1.71545
 Alpha virt. eigenvalues --    1.71556   1.73062   1.73068   1.73686   1.73695
 Alpha virt. eigenvalues --    1.74255   1.74373   1.74765   1.74775   1.74812
 Alpha virt. eigenvalues --    1.74819   1.77492   1.77508   1.79511   1.79542
 Alpha virt. eigenvalues --    1.80050   1.80051   1.80320   1.80322   1.81354
 Alpha virt. eigenvalues --    1.81364   1.81514   1.81520   1.83320   1.83321
 Alpha virt. eigenvalues --    1.85063   1.85064   1.86711   1.86720   1.86785
 Alpha virt. eigenvalues --    1.86790   1.88835   1.88837   1.88931   1.88945
 Alpha virt. eigenvalues --    1.91771   1.91781   1.91885   1.91894   1.93045
 Alpha virt. eigenvalues --    1.93053   1.93590   1.93591   1.94795   1.94801
 Alpha virt. eigenvalues --    1.94997   1.95013   1.95522   1.95523   1.96052
 Alpha virt. eigenvalues --    1.96067   1.96746   1.96748   1.97928   1.97946
 Alpha virt. eigenvalues --    1.98605   1.98611   1.98665   1.98671   1.99522
 Alpha virt. eigenvalues --    1.99522   1.99608   1.99609   1.99654   1.99654
 Alpha virt. eigenvalues --    1.99795   1.99796   2.00249   2.00250   2.02005
 Alpha virt. eigenvalues --    2.02006   2.02356   2.02356   2.03394   2.03398
 Alpha virt. eigenvalues --    2.03934   2.03941   2.04281   2.04286   2.05335
 Alpha virt. eigenvalues --    2.05347   2.05713   2.05720   2.05731   2.05748
 Alpha virt. eigenvalues --    2.08071   2.08072   2.09367   2.09373   2.10025
 Alpha virt. eigenvalues --    2.10033   2.10477   2.10478   2.10725   2.10726
 Alpha virt. eigenvalues --    2.10909   2.10911   2.10991   2.10992   2.11162
 Alpha virt. eigenvalues --    2.11163   2.11427   2.11429   2.11456   2.11457
 Alpha virt. eigenvalues --    2.11609   2.11610   2.13564   2.13576   2.14610
 Alpha virt. eigenvalues --    2.14619   2.16715   2.16717   2.17735   2.17738
 Alpha virt. eigenvalues --    2.17924   2.17925   2.18094   2.18195   2.18261
 Alpha virt. eigenvalues --    2.18368   2.19877   2.19891   2.21738   2.21739
 Alpha virt. eigenvalues --    2.22269   2.22278   2.22552   2.22585   2.22826
 Alpha virt. eigenvalues --    2.22844   2.23258   2.23265   2.23546   2.23596
 Alpha virt. eigenvalues --    2.24263   2.24265   2.24568   2.24611   2.24655
 Alpha virt. eigenvalues --    2.24656   2.24708   2.24710   2.26272   2.26276
 Alpha virt. eigenvalues --    2.26673   2.26685   2.27525   2.27537   2.27791
 Alpha virt. eigenvalues --    2.27816   2.29007   2.29012   2.29291   2.29297
 Alpha virt. eigenvalues --    2.29700   2.29725   2.29835   2.29859   2.30136
 Alpha virt. eigenvalues --    2.30235   2.30662   2.30665   2.31036   2.31040
 Alpha virt. eigenvalues --    2.31352   2.31356   2.31590   2.31592   2.32130
 Alpha virt. eigenvalues --    2.32131   2.32873   2.32875   2.33902   2.33905
 Alpha virt. eigenvalues --    2.35636   2.35645   2.37641   2.37661   2.37717
 Alpha virt. eigenvalues --    2.37723   2.38305   2.38312   2.41881   2.41883
 Alpha virt. eigenvalues --    2.42772   2.42794   2.44509   2.44510   2.44909
 Alpha virt. eigenvalues --    2.44910   2.45141   2.45147   2.46663   2.46677
 Alpha virt. eigenvalues --    2.47194   2.47222   2.47390   2.47416   2.47432
 Alpha virt. eigenvalues --    2.47466   2.47556   2.47798   2.47843   2.47877
 Alpha virt. eigenvalues --    2.49342   2.49343   2.50882   2.50890   2.51106
 Alpha virt. eigenvalues --    2.51108   2.51124   2.51131   2.51246   2.51273
 Alpha virt. eigenvalues --    2.51617   2.51651   2.52538   2.52543   2.52564
 Alpha virt. eigenvalues --    2.52643   2.52886   2.52903   2.53121   2.53160
 Alpha virt. eigenvalues --    2.53377   2.53591   2.53638   2.53643   2.53870
 Alpha virt. eigenvalues --    2.53879   2.54466   2.54539   2.54725   2.54726
 Alpha virt. eigenvalues --    2.57005   2.57062   2.58306   2.58320   2.58977
 Alpha virt. eigenvalues --    2.58979   2.59218   2.59222   2.60101   2.60141
 Alpha virt. eigenvalues --    2.60659   2.60660   2.62743   2.62745   2.63130
 Alpha virt. eigenvalues --    2.63142   2.64610   2.64611   2.65594   2.65595
 Alpha virt. eigenvalues --    2.67019   2.67041   2.67344   2.67344   2.67508
 Alpha virt. eigenvalues --    2.67513   2.67635   2.67637   2.68652   2.68652
 Alpha virt. eigenvalues --    2.69497   2.69534   2.74396   2.74410   2.75388
 Alpha virt. eigenvalues --    2.75390   2.75630   2.75635   2.75756   2.75762
 Alpha virt. eigenvalues --    2.75903   2.75905   2.76294   2.76303   2.76741
 Alpha virt. eigenvalues --    2.76780   2.77675   2.77689   2.79114   2.79115
 Alpha virt. eigenvalues --    2.80707   2.80708   2.80896   2.80897   2.81716
 Alpha virt. eigenvalues --    2.81718   2.81763   2.81765   2.82051   2.82065
 Alpha virt. eigenvalues --    2.82100   2.82102   2.82439   2.82445   2.82597
 Alpha virt. eigenvalues --    2.82603   2.84624   2.84624   2.85718   2.85720
 Alpha virt. eigenvalues --    2.87332   2.87333   2.90105   2.90114   2.90541
 Alpha virt. eigenvalues --    2.90551   2.90616   2.90622   2.91604   2.91607
 Alpha virt. eigenvalues --    2.91833   2.91835   2.92245   2.92266   3.01794
 Alpha virt. eigenvalues --    3.01795   3.02067   3.02069   3.03681   3.03682
 Alpha virt. eigenvalues --    3.05534   3.05536   3.05864   3.05864   3.05891
 Alpha virt. eigenvalues --    3.05934   3.06233   3.06273   3.07998   3.08034
 Alpha virt. eigenvalues --    3.08071   3.08095   3.08427   3.08457   3.08466
 Alpha virt. eigenvalues --    3.08509   3.08601   3.08658   3.08679   3.08949
 Alpha virt. eigenvalues --    3.08974   3.09190   3.09246   3.09333   3.09790
 Alpha virt. eigenvalues --    3.09934   3.12153   3.12155   3.13791   3.13811
 Alpha virt. eigenvalues --    3.14783   3.14851   3.18340   3.18366   3.21450
 Alpha virt. eigenvalues --    3.21451   3.22045   3.22055   3.25859   3.25861
 Alpha virt. eigenvalues --    3.28218   3.28219   3.29411   3.29411   3.29504
 Alpha virt. eigenvalues --    3.29505   3.33258   3.33261   3.33548   3.33549
 Alpha virt. eigenvalues --    3.40118   3.40121   3.45426   3.45440   3.50323
 Alpha virt. eigenvalues --    3.50325   3.54884   3.54893   3.60747   3.60759
 Alpha virt. eigenvalues --    3.61000   3.61005   3.61128   3.61302   3.61323
 Alpha virt. eigenvalues --    3.61330   3.61482   3.61528   3.61537   3.61629
 Alpha virt. eigenvalues --    3.61896   3.62365   3.63648   3.63664   3.65866
 Alpha virt. eigenvalues --    3.65871   3.65906   3.65917   3.71281   3.71281
 Alpha virt. eigenvalues --    3.71519   3.71531   3.71670   3.71690   3.71884
 Alpha virt. eigenvalues --    3.71887   3.71954   3.72008   3.72163   3.72169
 Alpha virt. eigenvalues --    3.72318   3.72323   3.72355   3.72376   3.72471
 Alpha virt. eigenvalues --    3.72587   3.72639   3.72677   3.72759   3.72795
 Alpha virt. eigenvalues --    3.72978   3.73062   3.73396   3.73400   3.73811
 Alpha virt. eigenvalues --    3.73964   3.83386   3.83394   3.85081   3.85087
 Alpha virt. eigenvalues --    3.86849   3.86858   3.86876   3.86884   3.94701
 Alpha virt. eigenvalues --    3.94705   3.96190   3.96192   4.07717   4.07723
 Alpha virt. eigenvalues --    4.10621   4.10624   4.10915   4.10919   4.11714
 Alpha virt. eigenvalues --    4.11726   4.12135   4.12137   4.13763   4.13765
 Alpha virt. eigenvalues --    4.14452   4.14453   4.14466   4.14467   4.14870
 Alpha virt. eigenvalues --    4.14874   4.16952   4.16956   4.17159   4.17165
 Alpha virt. eigenvalues --    4.18600   4.18600   4.21417   4.21436   4.21660
 Alpha virt. eigenvalues --    4.21687   4.33608   4.33610   4.33807   4.33892
 Alpha virt. eigenvalues --    4.35170   4.35396   4.38598   4.38738   4.38933
 Alpha virt. eigenvalues --    4.38934   4.41601   4.41729   4.41740   4.42746
 Alpha virt. eigenvalues --    4.44535   4.44546   4.45444   4.45510   4.45715
 Alpha virt. eigenvalues --    4.45763   4.45869   4.45910   4.46437   4.47006
 Alpha virt. eigenvalues --    4.50530   4.50537   4.50868   4.50875   4.59198
 Alpha virt. eigenvalues --    4.59233   4.63047   4.63048   4.78325   4.78348
 Alpha virt. eigenvalues --    4.86173   4.86173   4.95917   4.95918   5.09824
 Alpha virt. eigenvalues --    5.09830
          Condensed to atoms (all electrons):
 Mulliken atomic charges:
              1
     1  Si   0.551208
     2  C   -0.065737
     3  C    0.097558
     4  C   -0.163597
     5  H    0.067793
     6  C    0.096032
     7  C   -0.083037
     8  H    0.057956
     9  C   -0.065088
    10  H    0.059749
    11  C   -0.061982
    12  H    0.059415
    13  C   -0.082305
    14  H    0.056855
    15  C    0.109557
    16  C   -0.169860
    17  H    0.062499
    18  C    0.117345
    19  C    0.405943
    20  C   -0.623877
    21  C   -0.515716
    22  H    0.127897
    23  H    0.119609
    24  H    0.127523
    25  C   -0.523288
    26  H    0.130961
    27  H    0.122521
    28  H    0.123117
    29  C   -0.519923
    30  H    0.126562
    31  H    0.124462
    32  H    0.132678
    33  Si   0.551624
    34  C   -0.066670
    35  C    0.098286
    36  C   -0.162869
    37  H    0.066528
    38  C    0.096761
    39  C   -0.082389
    40  H    0.056131
    41  C   -0.065080
    42  H    0.059186
    43  C   -0.062137
    44  H    0.059387
    45  C   -0.082038
    46  H    0.057206
    47  C    0.109306
    48  C   -0.169272
    49  H    0.063207
    50  C    0.116893
    51  C    0.408245
    52  C   -0.625298
    53  C   -0.515594
    54  H    0.128332
    55  H    0.118885
    56  H    0.128283
    57  C   -0.521800
    58  H    0.126388
    59  H    0.119763
    60  H    0.125338
    61  C   -0.520551
    62  H    0.128758
    63  H    0.121194
    64  H    0.131169
    65  Si   0.551621
    66  C   -0.066683
    67  C    0.098390
    68  C   -0.162950
    69  H    0.066554
    70  C    0.096803
    71  C   -0.082452
    72  H    0.056154
    73  C   -0.065042
    74  H    0.059172
    75  C   -0.062166
    76  H    0.059399
    77  C   -0.082020
    78  H    0.057212
    79  C    0.109263
    80  C   -0.169233
    81  H    0.063196
    82  C    0.116849
    83  C    0.408183
    84  C   -0.625232
    85  C   -0.515597
    86  H    0.128326
    87  H    0.118889
    88  H    0.128277
    89  C   -0.521804
    90  H    0.126382
    91  H    0.119763
    92  H    0.125337
    93  C   -0.520561
    94  H    0.128759
    95  H    0.121197
    96  H    0.131165
    97  Si   0.551194
    98  C   -0.065742
    99  C    0.097540
   100  C   -0.163582
   101  H    0.067782
   102  C    0.096056
   103  C   -0.083050
   104  H    0.057960
   105  C   -0.065060
   106  H    0.059752
   107  C   -0.062038
   108  H    0.059438
   109  C   -0.082275
   110  H    0.056863
   111  C    0.109522
   112  C   -0.169897
   113  H    0.062521
   114  C    0.117371
   115  C    0.405950
   116  C   -0.623855
   117  C   -0.515717
   118  H    0.127896
   119  H    0.119614
   120  H    0.127521
   121  C   -0.523291
   122  H    0.130961
   123  H    0.122521
   124  H    0.123115
   125  C   -0.519918
   126  H    0.126559
   127  H    0.124462
   128  H    0.132676
 Sum of Mulliken atomic charges =   0.00000
 Mulliken charges with hydrogens summed into heavy atoms:
              1
     1  Si   0.551208
     2  C   -0.065737
     3  C    0.097558
     4  C   -0.095804
     6  C    0.096032
     7  C   -0.025081
     9  C   -0.005339
    11  C   -0.002567
    13  C   -0.025450
    15  C    0.109557
    16  C   -0.107362
    18  C    0.117345
    19  C    0.405943
    20  C   -0.623877
    21  C   -0.140688
    25  C   -0.146689
    29  C   -0.136221
    33  Si   0.551624
    34  C   -0.066670
    35  C    0.098286
    36  C   -0.096341
    38  C    0.096761
    39  C   -0.026258
    41  C   -0.005893
    43  C   -0.002750
    45  C   -0.024832
    47  C    0.109306
    48  C   -0.106066
    50  C    0.116893
    51  C    0.408245
    52  C   -0.625298
    53  C   -0.140094
    57  C   -0.150311
    61  C   -0.139430
    65  Si   0.551621
    66  C   -0.066683
    67  C    0.098390
    68  C   -0.096397
    70  C    0.096803
    71  C   -0.026298
    73  C   -0.005870
    75  C   -0.002767
    77  C   -0.024808
    79  C    0.109263
    80  C   -0.106037
    82  C    0.116849
    83  C    0.408183
    84  C   -0.625232
    85  C   -0.140105
    89  C   -0.150322
    93  C   -0.139440
    97  Si   0.551194
    98  C   -0.065742
    99  C    0.097540
   100  C   -0.095800
   102  C    0.096056
   103  C   -0.025090
   105  C   -0.005308
   107  C   -0.002599
   109  C   -0.025412
   111  C    0.109522
   112  C   -0.107376
   114  C    0.117371
   115  C    0.405950
   116  C   -0.623855
   117  C   -0.140686
   121  C   -0.146694
   125  C   -0.136220
 Sum of Mulliken charges with hydrogens summed into heavy atoms =   0.00000
 Electronic spatial extent (au):  <R**2>=         105855.4703
 Charge=              0.0000 electrons
 Dipole moment (field-independent basis, Debye):
    X=              0.0004    Y=             -0.0001    Z=             -0.0006  Tot=              0.0007
 Quadrupole moment (field-independent basis, Debye-Ang):
   XX=           -366.2410   YY=           -373.5068   ZZ=           -418.9361
   XY=             -1.0515   XZ=            -28.6375   YZ=             -2.2883
 Traceless Quadrupole moment (field-independent basis, Debye-Ang):
   XX=             19.9870   YY=             12.7211   ZZ=            -32.7081
   XY=             -1.0515   XZ=            -28.6375   YZ=             -2.2883
 Octapole moment (field-independent basis, Debye-Ang**2):
  XXX=              0.1417  YYY=             -0.0024  ZZZ=             -0.0113  XYY=             -0.0082
  XXY=             -0.0155  XXZ=             -0.0473  XZZ=              0.0109  YZZ=             -0.0038
  YYZ=             -0.0013  XYZ=              0.0029
 Hexadecapole moment (field-independent basis, Debye-Ang**3):
 XXXX=        -101920.1053 YYYY=         -21023.1692 ZZZZ=          -8915.0930 XXXY=           -330.6270
 XXXZ=          -3190.1330 YYYX=            418.9269 YYYZ=           -271.7463 ZZZX=           -397.6925
 ZZZY=            100.0858 XXYY=         -21155.3458 XXZZ=         -20762.5832 YYZZ=          -5453.8048
 XXYZ=            -57.9978 YYXZ=           -187.4294 ZZXY=           -114.0195
 N-N= 9.702447454274D+03 E-N=-2.789892616488D+04  KE= 3.617656285604D+03
 Leave Link  601 at Fri Jan  6 02:26:03 2012, MaxMem= 1073741824 cpu:       8.1
 (Enter /apps/gaussian/g09/g09/l9999.exe)
 1\1\GINC-CX1-1-9-1\SP\RTD-B3LYP-FC\6-31G(d,p)\C64H60Si4\JMF02\06-Jan-2
 012\0\\#p scf=verytight b3lyp/6-31g(d,p) td(singlets,nstates=25)\\CSD 
 ENTRY k01071\\0,1\Si,0,9.4118847,10.36196215,8.66643619\C,0,7.45586038
 ,7.41039591,5.97347302\C,0,8.22032446,6.21507133,5.87145431\C,0,9.3991
 1189,6.03036596,6.61803795\H,0,9.68598932,6.72114773,7.20437223\C,0,10
 .15408934,4.87258156,6.5252246\C,0,11.363489,4.6989474,7.27124246\H,0,
 11.65798086,5.38907381,7.85375691\C,0,12.09385517,3.5616789,7.15674082
 \H,0,12.89280557,3.4626282,7.66054656\C,0,11.6728799,2.51587232,6.2883
 4955\H,0,12.18791766,1.72015591,6.22635364\C,0,10.54607095,2.64175807,
 5.55232483\H,0,10.28815673,1.93735696,4.96925337\C,0,9.73477884,3.8215
 1799,5.63696897\C,0,8.57423746,3.98941249,4.89822601\H,0,8.29365978,3.
 29194818,4.31695697\C,0,7.79281469,5.16314289,4.98218665\C,0,7.9174899
 4,8.43898512,6.85229461\C,0,8.39889068,9.26263932,7.59389834\C,0,10.45
 271453,11.44440437,7.58129421\H,0,11.1123279,10.89404775,7.10961127\H,
 0,10.9168749,12.10872244,8.13235196\H,0,9.8816481,11.90063829,6.929870
 59\C,0,10.53534303,9.26827771,9.66182643\H,0,9.99987391,8.71998634,10.
 27311883\H,0,11.15720872,9.82230077,10.17861992\H,0,11.04153476,8.6850
 8067,9.059066\C,0,8.31855776,11.37181239,9.77123377\H,0,7.74160265,11.
 94541398,9.22432883\H,0,8.8716957,11.92874064,10.35917539\H,0,7.762672
 08,10.7744644,10.31516437\Si,0,4.65372962,2.38000067,1.52929558\C,0,6.
 60975394,5.33156691,4.22225875\C,0,5.84528986,6.5268915,4.32427746\C,0
 ,4.66650243,6.71159686,3.57769382\H,0,4.379625,6.02081509,2.99135954\C
 ,0,3.91152498,7.86938126,3.67050716\C,0,2.70212532,8.04301543,2.924489
 3\H,0,2.40763346,7.35288901,2.34197486\C,0,1.97175915,9.18028392,3.038
 99094\H,0,1.17280875,9.27933462,2.53518521\C,0,2.39273442,10.2260905,3
 .90738222\H,0,1.87769666,11.02180692,3.96937813\C,0,3.51954337,10.1002
 0475,4.64340693\H,0,3.77745759,10.80460586,5.2264784\C,0,4.33083548,8.
 92044483,4.55876279\C,0,5.49137686,8.75255034,5.29750575\H,0,5.7719545
 4,9.45001465,5.87877479\C,0,6.27279963,7.57881993,5.21354512\C,0,6.148
 12438,4.3029777,3.34343715\C,0,5.66672364,3.4793235,2.60183343\C,0,3.6
 1289979,1.29755845,2.61443755\H,0,2.95328642,1.84791507,3.0861205\H,0,
 3.14873942,0.63324038,2.06337981\H,0,4.18396622,0.84132453,3.26586118\
 C,0,3.53027129,3.47368511,0.53390534\H,0,4.06574041,4.02197649,-0.0773
 8706\H,0,2.9084056,2.91966206,0.01711185\H,0,3.02407956,4.05688215,1.1
 3666577\C,0,5.74705656,1.37015044,0.42449799\H,0,6.32401167,0.79654885
 ,0.97140294\H,0,5.19391862,0.81322218,-0.16344362\H,0,6.30294224,1.967
 49842,-0.1194326\Si,0,12.0446,12.9089,19.7171\C,0,10.0886,9.95735,17.0
 242\C,0,10.8531,8.76203,16.9222\C,0,12.0318,8.57732,17.6687\H,0,12.318
 7,9.2681,18.2551\C,0,12.7868,7.41954,17.5759\C,0,13.9962,7.2459,18.321
 9\H,0,14.2907,7.93603,18.9045\C,0,14.7266,6.10863,18.2074\H,0,15.5255,
 6.00958,18.7112\C,0,14.3056,5.06283,17.339\H,0,14.8207,4.26711,17.277\
 C,0,13.1788,5.18871,16.603\H,0,12.9209,4.48431,16.0199\C,0,12.3675,6.3
 6847,16.6877\C,0,11.207,6.53637,15.9489\H,0,10.9264,5.8389,15.3677\C,0
 ,10.4256,7.7101,16.0329\C,0,10.5502,10.9859,17.903\C,0,11.0316,11.8096
 ,18.6446\C,0,13.0855,13.9914,18.632\H,0,13.7451,13.441,18.1603\H,0,13.
 5496,14.6557,19.183\H,0,12.5144,14.4476,17.9806\C,0,13.1681,11.8152,20
 .7125\H,0,12.6326,11.2669,21.3238\H,0,13.7899,12.3693,21.2293\H,0,13.6
 743,11.232,20.1098\C,0,10.9513,13.9188,20.8219\H,0,10.3743,14.4924,20.
 275\H,0,11.5044,14.4757,21.4099\H,0,10.3954,13.3214,21.3659\Si,0,7.286
 47,4.92695,12.58\C,0,9.24249,7.87852,15.273\C,0,8.47803,9.07385,15.375
 \C,0,7.29924,9.25855,14.6284\H,0,7.01236,8.56777,14.0421\C,0,6.54426,1
 0.4163,14.7212\C,0,5.33486,10.59,13.9752\H,0,5.04037,9.89984,13.3927\C
 ,0,4.6045,11.7272,14.0897\H,0,3.80555,11.8263,13.5859\C,0,5.02547,12.7
 73,14.9581\H,0,4.51043,13.5688,15.0201\C,0,6.15228,12.6472,15.6941\H,0
 ,6.41019,13.3516,16.2772\C,0,6.96357,11.4674,15.6095\C,0,8.12411,11.29
 95,16.3482\H,0,8.40469,11.997,16.9295\C,0,8.90554,10.1258,16.2642\C,0,
 8.78086,6.84993,14.3941\C,0,8.29946,6.02628,13.6525\C,0,6.24564,3.8445
 1,13.6651\H,0,5.58602,4.39487,14.1368\H,0,5.78148,3.18019,13.1141\H,0,
 6.8167,3.38828,14.3166\C,0,6.16301,6.02064,11.5846\H,0,6.69848,6.56893
 ,10.9733\H,0,5.54114,5.46662,11.0678\H,0,5.65682,6.60384,12.1874\C,0,8
 .37979,3.9171,11.4752\H,0,8.95675,3.3435,12.0221\H,0,7.82666,3.36018,1
 0.8873\H,0,8.93568,4.51445,10.9313\\Version=EM64L-G09RevA.02\State=1-A
 \HF=-3632.3187747\RMSD=3.769e-09\PG=C01 [X(C64H60Si4)]\\@


 IT IS A CAPITAL MISTAKE TO THEORIZE BEFORE ONE HAS
 DATA.  INSENSIBLY ONE BEGINS TO TWIST FACTS TO SUIT
 THEORIES RATHER THAN THEORIES TO SUIT FACTS.

                                         -- SHERLOCK HOLMES
 Job cpu time:  1 days 15 hours 23 minutes 48.6 seconds.
 File lengths (MBytes):  RWF=   9046 Int=      0 D2E=      0 Chk=   1484 Scr=      1
 Normal termination of Gaussian 09 at Fri Jan  6 02:26:05 2012.
