 Entering Gaussian System, Link 0=g03
 Input=k01094_tes_Tv2.com
 Output=k01094_tes_Tv2.log
 Initial command:
 /apps/gaussian/g09/g09/l1.exe /tmp/pbs.509045.cx1b/Gau-15359.inp -scrdir=/tmp/pbs.509045.cx1b/
 Entering Link 1 = /apps/gaussian/g09/g09/l1.exe PID=     15367.
  
 Copyright (c) 1988,1990,1992,1993,1995,1998,2003,2009, Gaussian, Inc.
                  All Rights Reserved.
  
 This is part of the Gaussian(R) 09 program.  It is based on
 the Gaussian(R) 03 system (copyright 2003, Gaussian, Inc.),
 the Gaussian(R) 98 system (copyright 1998, Gaussian, Inc.),
 the Gaussian(R) 94 system (copyright 1995, Gaussian, Inc.),
 the Gaussian 92(TM) system (copyright 1992, Gaussian, Inc.),
 the Gaussian 90(TM) system (copyright 1990, Gaussian, Inc.),
 the Gaussian 88(TM) system (copyright 1988, Gaussian, Inc.),
 the Gaussian 86(TM) system (copyright 1986, Carnegie Mellon
 University), and the Gaussian 82(TM) system (copyright 1983,
 Carnegie Mellon University). Gaussian is a federally registered
 trademark of Gaussian, Inc.
  
 This software contains proprietary and confidential information,
 including trade secrets, belonging to Gaussian, Inc.
  
 This software is provided under written license and may be
 used, copied, transmitted, or stored only in accord with that
 written license.
  
 The following legend is applicable only to US Government
 contracts under FAR:
  
                    RESTRICTED RIGHTS LEGEND
  
 Use, reproduction and disclosure by the US Government is
 subject to restrictions as set forth in subparagraphs (a)
 and (c) of the Commercial Computer Software - Restricted
 Rights clause in FAR 52.227-19.
  
 Gaussian, Inc.
 340 Quinnipiac St., Bldg. 40, Wallingford CT 06492
  
  
 ---------------------------------------------------------------
 Warning -- This program may not be used in any manner that
 competes with the business of Gaussian, Inc. or will provide
 assistance to any competitor of Gaussian, Inc.  The licensee
 of this program is prohibited from giving any competitor of
 Gaussian, Inc. access to this program.  By using this program,
 the user acknowledges that Gaussian, Inc. is engaged in the
 business of creating and licensing software in the field of
 computational chemistry and represents and warrants to the
 licensee that it is not a competitor of Gaussian, Inc. and that
 it will not use this program in any manner prohibited above.
 ---------------------------------------------------------------
  

 Cite this work as:
 Gaussian 09, Revision A.02,
 M. J. Frisch, G. W. Trucks, H. B. Schlegel, G. E. Scuseria, 
 M. A. Robb, J. R. Cheeseman, G. Scalmani, V. Barone, B. Mennucci, 
 G. A. Petersson, H. Nakatsuji, M. Caricato, X. Li, H. P. Hratchian, 
 A. F. Izmaylov, J. Bloino, G. Zheng, J. L. Sonnenberg, M. Hada, 
 M. Ehara, K. Toyota, R. Fukuda, J. Hasegawa, M. Ishida, T. Nakajima, 
 Y. Honda, O. Kitao, H. Nakai, T. Vreven, J. A. Montgomery, Jr., 
 J. E. Peralta, F. Ogliaro, M. Bearpark, J. J. Heyd, E. Brothers, 
 K. N. Kudin, V. N. Staroverov, R. Kobayashi, J. Normand, 
 K. Raghavachari, A. Rendell, J. C. Burant, S. S. Iyengar, J. Tomasi, 
 M. Cossi, N. Rega, J. M. Millam, M. Klene, J. E. Knox, J. B. Cross, 
 V. Bakken, C. Adamo, J. Jaramillo, R. Gomperts, R. E. Stratmann, 
 O. Yazyev, A. J. Austin, R. Cammi, C. Pomelli, J. W. Ochterski, 
 R. L. Martin, K. Morokuma, V. G. Zakrzewski, G. A. Voth, 
 P. Salvador, J. J. Dannenberg, S. Dapprich, A. D. Daniels, 
 O. Farkas, J. B. Foresman, J. V. Ortiz, J. Cioslowski, 
 and D. J. Fox, Gaussian, Inc., Wallingford CT, 2009.
 
 ******************************************
 Gaussian 09:  EM64L-G09RevA.02 11-Jun-2009
                 5-Jan-2012 
 ******************************************
 %chk=k01094_tes_Tv2.chk
 %Mem=8Gb
 %nproc=8
 Will use up to    8 processors via shared memory.
 ---------------------------------------------------------
 #p scf=verytight b3lyp/6-31g(d,p) td(singlets,nstates=25)
 ---------------------------------------------------------
 1/38=1/1;
 2/12=2,17=6,18=5,40=1/2;
 3/5=1,6=6,7=101,11=2,16=1,25=1,30=1,74=-5/1,2,8,3;
 4//1;
 5/5=2,17=3,38=5/2;
 8/6=1,10=2,108=25/1;
 9/41=25,42=1,48=1/14;
 6/7=2,8=2,9=2,10=2/1;
 99/5=1,9=1/99;
 Leave Link    1 at Thu Jan  5 21:29:22 2012, MaxMem= 1073741824 cpu:       0.2
 (Enter /apps/gaussian/g09/g09/l101.exe)
 ----------------
 CSD ENTRY k01094
 ----------------
 Symbolic Z-matrix:
 Charge =  0 Multiplicity = 1
 Si(PDBName=Si1,ResName=UNK,ResNum=1)  7.67676   4.94253   2.12464 
 Si(PDBName=Si2,ResName=UNK,ResNum=1)  4.28162   9.81254   11.99769 
 C(PDBName=C1,ResName=UNK,ResNum=1)  5.88831   5.96627   6.07011 
 C(PDBName=C2,ResName=UNK,ResNum=1)  6.09047   5.24232   7.26812 
 C(PDBName=C3,ResName=UNK,ResNum=1)  6.62881   3.94071   7.27218 
 H(PDBName=H3,ResName=UNK,ResNum=1)  6.8715    3.54304   6.44484 
 C(PDBName=C4,ResName=UNK,ResNum=1)  6.81589   3.22362   8.43886 
 C(PDBName=C5,ResName=UNK,ResNum=1)  7.35926   1.90045   8.45262 
 H(PDBName=H5,ResName=UNK,ResNum=1)  7.59858   1.48605   7.63231 
 C(PDBName=C6,ResName=UNK,ResNum=1)  7.54025   1.22634   9.61403 
 H(PDBName=H6,ResName=UNK,ResNum=1)  7.90027   0.34685   9.59742 
 C(PDBName=C7,ResName=UNK,ResNum=1)  7.19697   1.82693   10.85695 
 H(PDBName=H7,ResName=UNK,ResNum=1)  7.33393   1.34816   11.66574 
 C(PDBName=C8,ResName=UNK,ResNum=1)  6.67611   3.07412   10.89545 
 H(PDBName=H8,ResName=UNK,ResNum=1)  6.44429   3.45592   11.73444 
 C(PDBName=C9,ResName=UNK,ResNum=1)  6.46769   3.83281   9.69765 
 C(PDBName=C10,ResName=UNK,ResNum=1)  5.95395   5.11586   9.71255 
 H(PDBName=H10,ResName=UNK,ResNum=1)  5.73473   5.51544   10.54618 
 C(PDBName=C11,ResName=UNK,ResNum=1)  5.74489   5.84868   8.53039 
 C(PDBName=C12,ResName=UNK,ResNum=1)  5.24618   7.18179   8.55055 
 C(PDBName=C13,ResName=UNK,ResNum=1)  5.00798   7.89329   7.34628 
 C(PDBName=C14,ResName=UNK,ResNum=1)  4.52458   9.21207   7.33206 
 H(PDBName=H14,ResName=UNK,ResNum=1)  4.33632   9.638     8.15951 
 C(PDBName=C15,ResName=UNK,ResNum=1)  4.31255   9.91646   6.15489 
 C(PDBName=C16,ResName=UNK,ResNum=1)  3.87263   11.27182   6.13855 
 H(PDBName=H16,ResName=UNK,ResNum=1)  3.73088   11.72707   6.95999 
 C(PDBName=C17,ResName=UNK,ResNum=1)  3.6506    11.92653   4.96813 
 H(PDBName=H17,ResName=UNK,ResNum=1)  3.36908   12.83304   4.9795 
 C(PDBName=C18,ResName=UNK,ResNum=1)  3.83999   11.25774   3.72182 
 H(PDBName=H18,ResName=UNK,ResNum=1)  3.65971   11.71531   2.90944 
 C(PDBName=C19,ResName=UNK,ResNum=1)  4.27263   9.97909   3.69053 
 H(PDBName=H19,ResName=UNK,ResNum=1)  4.39687   9.54989   2.85174 
 C(PDBName=C20,ResName=UNK,ResNum=1)  4.55025   9.25348   4.89848 
 C(PDBName=C21,ResName=UNK,ResNum=1)  5.04013   7.95889   4.89214 
 H(PDBName=H21,ResName=UNK,ResNum=1)  5.20269   7.52954   4.05971 
 C(PDBName=C22,ResName=UNK,ResNum=1)  5.30535   7.25979   6.08358 
 C(PDBName=C23,ResName=UNK,ResNum=1)  6.36652   5.44971   4.81807 
 C(PDBName=C24,ResName=UNK,ResNum=1)  6.83687   5.1281    3.74769 
 C(PDBName=C25,ResName=UNK,ResNum=1)  9.51188   5.09836   2.38159 
 H(PDBName=H25A,ResName=UNK,ResNum=1)  9.7299    6.01747   2.64161 
 H(PDBName=H25B,ResName=UNK,ResNum=1)  9.97885   4.8752    1.54801 
 H(PDBName=H25C,ResName=UNK,ResNum=1)  9.79559   4.48169   3.08845 
 C(PDBName=C26,ResName=UNK,ResNum=1)  7.29153   3.27432   1.39351 
 H(PDBName=H26A,ResName=UNK,ResNum=1)  7.53957   2.57366   2.03136 
 H(PDBName=H26B,ResName=UNK,ResNum=1)  7.79948   3.15685   0.56418 
 H(PDBName=H26C,ResName=UNK,ResNum=1)  6.33218   3.21705   1.20039 
 C(PDBName=C27,ResName=UNK,ResNum=1)  7.03028   6.3347    1.02103 
 C(PDBName=C28,ResName=UNK,ResNum=1)  7.64491   6.20556  -0.37887 
 H(PDBName=H28A,ResName=UNK,ResNum=1)  7.35521   5.36196  -0.78551 
 H(PDBName=H28B,ResName=UNK,ResNum=1)  8.62235   6.21528  -0.30782 
 H(PDBName=H28C,ResName=UNK,ResNum=1)  7.3488    6.95484  -0.93585 
 C(PDBName=C29,ResName=UNK,ResNum=1)  5.50431   6.25659   0.9048 
 H(PDBName=H29A,ResName=UNK,ResNum=1)  5.10472   6.34196   1.79536 
 H(PDBName=H29B,ResName=UNK,ResNum=1)  5.25031   5.39435   0.51387 
 H(PDBName=H29C,ResName=UNK,ResNum=1)  5.18284   6.9829    0.33099 
 C(PDBName=C30,ResName=UNK,ResNum=1)  7.41699   7.70518   1.60464 
 H(PDBName=H30A,ResName=UNK,ResNum=1)  7.04793   8.41628   1.0405 
 H(PDBName=H30B,ResName=UNK,ResNum=1)  8.39419   7.78435   1.63324 
 H(PDBName=H30C,ResName=UNK,ResNum=1)  7.05622   7.78707   2.51227 
 C(PDBName=C31,ResName=UNK,ResNum=1)  4.98373   7.86219   9.78719 
 C(PDBName=C32,ResName=UNK,ResNum=1)  4.7402    8.54041   10.76398 
 C(PDBName=C33,ResName=UNK,ResNum=1)  2.56019   10.38794   11.59481 
 H(PDBName=H33A,ResName=UNK,ResNum=1)  2.53225   10.71107   10.66964 
 H(PDBName=H33B,ResName=UNK,ResNum=1)  2.30868   11.1141   12.20212 
 H(PDBName=H33C,ResName=UNK,ResNum=1)  1.93364   9.64148   11.69988 
 C(PDBName=C34,ResName=UNK,ResNum=1)  4.29441   9.0848    13.70565 
 H(PDBName=H34A,ResName=UNK,ResNum=1)  3.7156    8.29456   13.728 
 H(PDBName=H34B,ResName=UNK,ResNum=1)  3.96457   9.74991   14.3464 
 H(PDBName=H34C,ResName=UNK,ResNum=1)  5.20951   8.82621   13.9441 
 C(PDBName=C35,ResName=UNK,ResNum=1)  5.52526   11.22465   11.83927 
 C(PDBName=C36,ResName=UNK,ResNum=1)  6.91715   10.75602   12.27193 
 H(PDBName=H36A,ResName=UNK,ResNum=1)  7.18794   9.98877   11.72615 
 H(PDBName=H36B,ResName=UNK,ResNum=1)  6.89477   10.4925   13.21623 
 H(PDBName=H36C,ResName=UNK,ResNum=1)  7.56054   11.48525   12.15225 
 C(PDBName=C37,ResName=UNK,ResNum=1)  5.11022   12.40094   12.73139 
 H(PDBName=H37A,ResName=UNK,ResNum=1)  5.05139   12.10008   13.66155 
 H(PDBName=H37B,ResName=UNK,ResNum=1)  4.2367    12.73902   12.44182 
 H(PDBName=H37C,ResName=UNK,ResNum=1)  5.77668   13.11602   12.66038 
 C(PDBName=C38,ResName=UNK,ResNum=1)  5.59985   11.71008   10.37952 
 H(PDBName=H38A,ResName=UNK,ResNum=1)  6.23134   12.45698   10.3159 
 H(PDBName=H38B,ResName=UNK,ResNum=1)  4.71248   12.00675   10.08825 
 H(PDBName=H38C,ResName=UNK,ResNum=1)  5.90357   10.97556   9.80712 
 Si(PDBName=Si1,ResName=UNK,ResNum=1)  11.3896   17.9937   2.12464 
 Si(PDBName=Si2,ResName=UNK,ResNum=1)  7.99442   22.8637   11.9977 
 C(PDBName=C1,ResName=UNK,ResNum=1)  9.60111   19.0174   6.07011 
 C(PDBName=C2,ResName=UNK,ResNum=1)  9.80326   18.2935   7.26812 
 C(PDBName=C3,ResName=UNK,ResNum=1)  10.3416   16.9919   7.27218 
 H(PDBName=H3,ResName=UNK,ResNum=1)  10.5843   16.5942   6.44484 
 C(PDBName=C4,ResName=UNK,ResNum=1)  10.5287   16.2748   8.43886 
 C(PDBName=C5,ResName=UNK,ResNum=1)  11.0721   14.9516   8.45262 
 H(PDBName=H5,ResName=UNK,ResNum=1)  11.3114   14.5372   7.63231 
 C(PDBName=C6,ResName=UNK,ResNum=1)  11.253    14.2775   9.61403 
 H(PDBName=H6,ResName=UNK,ResNum=1)  11.6131   13.398    9.59742 
 C(PDBName=C7,ResName=UNK,ResNum=1)  10.9098   14.8781   10.8569 
 H(PDBName=H7,ResName=UNK,ResNum=1)  11.0467   14.3993   11.6657 
 C(PDBName=C8,ResName=UNK,ResNum=1)  10.3889   16.1253   10.8954 
 H(PDBName=H8,ResName=UNK,ResNum=1)  10.1571   16.5071   11.7344 
 C(PDBName=C9,ResName=UNK,ResNum=1)  10.1805   16.884    9.69765 
 C(PDBName=C10,ResName=UNK,ResNum=1)  9.66675   18.167    9.71255 
 H(PDBName=H10,ResName=UNK,ResNum=1)  9.44752   18.5666   10.5462 
 C(PDBName=C11,ResName=UNK,ResNum=1)  9.45769   18.8998   8.53039 
 C(PDBName=C12,ResName=UNK,ResNum=1)  8.95898   20.233    8.55055 
 C(PDBName=C13,ResName=UNK,ResNum=1)  8.72078   20.9445   7.34628 
 C(PDBName=C14,ResName=UNK,ResNum=1)  8.23738   22.2632   7.33206 
 H(PDBName=H14,ResName=UNK,ResNum=1)  8.04912   22.6892   8.15951 
 C(PDBName=C15,ResName=UNK,ResNum=1)  8.02534   22.9676   6.15489 
 C(PDBName=C16,ResName=UNK,ResNum=1)  7.58542   24.323    6.13855 
 H(PDBName=H16,ResName=UNK,ResNum=1)  7.44368   24.7782   6.95999 
 C(PDBName=C17,ResName=UNK,ResNum=1)  7.3634    24.9777   4.96813 
 H(PDBName=H17,ResName=UNK,ResNum=1)  7.08188   25.8842   4.9795 
 C(PDBName=C18,ResName=UNK,ResNum=1)  7.55279   24.3089   3.72182 
 H(PDBName=H18,ResName=UNK,ResNum=1)  7.37251   24.7665   2.90944 
 C(PDBName=C19,ResName=UNK,ResNum=1)  7.98543   23.0303   3.69053 
 H(PDBName=H19,ResName=UNK,ResNum=1)  8.10967   22.6011   2.85174 
 C(PDBName=C20,ResName=UNK,ResNum=1)  8.26304   22.3046   4.89848 
 C(PDBName=C21,ResName=UNK,ResNum=1)  8.75293   21.0101   4.89214 
 H(PDBName=H21,ResName=UNK,ResNum=1)  8.91549   20.5807   4.05971 
 C(PDBName=C22,ResName=UNK,ResNum=1)  9.01815   20.311    6.08358 
 C(PDBName=C23,ResName=UNK,ResNum=1)  10.0793   18.5009   4.81807 
 C(PDBName=C24,ResName=UNK,ResNum=1)  10.5497   18.1793   3.74769 
 C(PDBName=C25,ResName=UNK,ResNum=1)  13.2247   18.1495   2.38159 
 H(PDBName=H25A,ResName=UNK,ResNum=1)  13.4427   19.0686   2.64161 
 H(PDBName=H25B,ResName=UNK,ResNum=1)  13.6916   17.9264   1.54801 
 H(PDBName=H25C,ResName=UNK,ResNum=1)  13.5084   17.5329   3.08845 
 C(PDBName=C26,ResName=UNK,ResNum=1)  11.0043   16.3255   1.39351 
 H(PDBName=H26A,ResName=UNK,ResNum=1)  11.2524   15.6248   2.03136 
 H(PDBName=H26B,ResName=UNK,ResNum=1)  11.5123   16.208    0.56418 
 H(PDBName=H26C,ResName=UNK,ResNum=1)  10.045    16.2682   1.20039 
 C(PDBName=C27,ResName=UNK,ResNum=1)  10.7431   19.3859   1.02103 
 C(PDBName=C28,ResName=UNK,ResNum=1)  11.3577   19.2567  -0.37887 
 H(PDBName=H28A,ResName=UNK,ResNum=1)  11.068    18.4131  -0.78551 
 H(PDBName=H28B,ResName=UNK,ResNum=1)  12.3351   19.2664  -0.30782 
 H(PDBName=H28C,ResName=UNK,ResNum=1)  11.0616   20.006   -0.93585 
 C(PDBName=C29,ResName=UNK,ResNum=1)  9.2171    19.3078   0.9048 
 H(PDBName=H29A,ResName=UNK,ResNum=1)  8.81751   19.3931   1.79536 
 H(PDBName=H29B,ResName=UNK,ResNum=1)  8.96311   18.4455   0.51387 
 H(PDBName=H29C,ResName=UNK,ResNum=1)  8.89564   20.0341   0.33099 
 C(PDBName=C30,ResName=UNK,ResNum=1)  11.1298   20.7563   1.60464 
 H(PDBName=H30A,ResName=UNK,ResNum=1)  10.7607   21.4674   1.0405 
 H(PDBName=H30B,ResName=UNK,ResNum=1)  12.107    20.8355   1.63324 
 H(PDBName=H30C,ResName=UNK,ResNum=1)  10.769    20.8382   2.51227 
 C(PDBName=C31,ResName=UNK,ResNum=1)  8.69653   20.9134   9.78719 
 C(PDBName=C32,ResName=UNK,ResNum=1)  8.45299   21.5916   10.764 
 C(PDBName=C33,ResName=UNK,ResNum=1)  6.27299   23.4391   11.5948 
 H(PDBName=H33A,ResName=UNK,ResNum=1)  6.24505   23.7622   10.6696 
 H(PDBName=H33B,ResName=UNK,ResNum=1)  6.02147   24.1653   12.2021 
 H(PDBName=H33C,ResName=UNK,ResNum=1)  5.64644   22.6926   11.6999 
 C(PDBName=C34,ResName=UNK,ResNum=1)  8.0072    22.136    13.7056 
 H(PDBName=H34A,ResName=UNK,ResNum=1)  7.42839   21.3457   13.728 
 H(PDBName=H34B,ResName=UNK,ResNum=1)  7.67737   22.8011   14.3464 
 H(PDBName=H34C,ResName=UNK,ResNum=1)  8.92231   21.8774   13.9441 
 C(PDBName=C35,ResName=UNK,ResNum=1)  9.23806   24.2758   11.8393 
 C(PDBName=C36,ResName=UNK,ResNum=1)  10.63     23.8072   12.2719 
 H(PDBName=H36A,ResName=UNK,ResNum=1)  10.9007   23.0399   11.7261 
 H(PDBName=H36B,ResName=UNK,ResNum=1)  10.6076   23.5437   13.2162 
 H(PDBName=H36C,ResName=UNK,ResNum=1)  11.2733   24.5364   12.1523 
 C(PDBName=C37,ResName=UNK,ResNum=1)  8.82302   25.4521   12.7314 
 H(PDBName=H37A,ResName=UNK,ResNum=1)  8.76419   25.1512   13.6616 
 H(PDBName=H37B,ResName=UNK,ResNum=1)  7.94949   25.7902   12.4418 
 H(PDBName=H37C,ResName=UNK,ResNum=1)  9.48948   26.1672   12.6604 
 C(PDBName=C38,ResName=UNK,ResNum=1)  9.31265   24.7612   10.3795 
 H(PDBName=H38A,ResName=UNK,ResNum=1)  9.94414   25.5081   10.3159 
 H(PDBName=H38B,ResName=UNK,ResNum=1)  8.42528   25.0579   10.0883 
 H(PDBName=H38C,ResName=UNK,ResNum=1)  9.61637   24.0267   9.80712 
 
 NAtoms=    164 NQM=    164 NQMF=      0 NMic=      0 NMicF=      0 NTot=    164.
                    Isotopes and Nuclear Properties:
 (Nuclear quadrupole moments (NQMom) in fm**2, nuclear magnetic moments (NMagM)
  in nuclear magnetons)

  Atom         1           2           3           4           5           6           7           8           9          10
 IAtWgt=          28          28          12          12          12           1          12          12           1          12
 AtmWgt=  27.9769284  27.9769284  12.0000000  12.0000000  12.0000000   1.0078250  12.0000000  12.0000000   1.0078250  12.0000000
 NucSpn=           0           0           0           0           0           1           0           0           1           0
 AtZEff=   0.0000000   0.0000000   0.0000000   0.0000000   0.0000000   0.0000000   0.0000000   0.0000000   0.0000000   0.0000000
 NQMom=    0.0000000   0.0000000   0.0000000   0.0000000   0.0000000   0.0000000   0.0000000   0.0000000   0.0000000   0.0000000
 NMagM=    0.0000000   0.0000000   0.0000000   0.0000000   0.0000000   2.7928460   0.0000000   0.0000000   2.7928460   0.0000000

  Atom        11          12          13          14          15          16          17          18          19          20
 IAtWgt=           1          12           1          12           1          12          12           1          12          12
 AtmWgt=   1.0078250  12.0000000   1.0078250  12.0000000   1.0078250  12.0000000  12.0000000   1.0078250  12.0000000  12.0000000
 NucSpn=           1           0           1           0           1           0           0           1           0           0
 AtZEff=   0.0000000   0.0000000   0.0000000   0.0000000   0.0000000   0.0000000   0.0000000   0.0000000   0.0000000   0.0000000
 NQMom=    0.0000000   0.0000000   0.0000000   0.0000000   0.0000000   0.0000000   0.0000000   0.0000000   0.0000000   0.0000000
 NMagM=    2.7928460   0.0000000   2.7928460   0.0000000   2.7928460   0.0000000   0.0000000   2.7928460   0.0000000   0.0000000

  Atom        21          22          23          24          25          26          27          28          29          30
 IAtWgt=          12          12           1          12          12           1          12           1          12           1
 AtmWgt=  12.0000000  12.0000000   1.0078250  12.0000000  12.0000000   1.0078250  12.0000000   1.0078250  12.0000000   1.0078250
 NucSpn=           0           0           1           0           0           1           0           1           0           1
 AtZEff=   0.0000000   0.0000000   0.0000000   0.0000000   0.0000000   0.0000000   0.0000000   0.0000000   0.0000000   0.0000000
 NQMom=    0.0000000   0.0000000   0.0000000   0.0000000   0.0000000   0.0000000   0.0000000   0.0000000   0.0000000   0.0000000
 NMagM=    0.0000000   0.0000000   2.7928460   0.0000000   0.0000000   2.7928460   0.0000000   2.7928460   0.0000000   2.7928460

  Atom        31          32          33          34          35          36          37          38          39          40
 IAtWgt=          12           1          12          12           1          12          12          12          12           1
 AtmWgt=  12.0000000   1.0078250  12.0000000  12.0000000   1.0078250  12.0000000  12.0000000  12.0000000  12.0000000   1.0078250
 NucSpn=           0           1           0           0           1           0           0           0           0           1
 AtZEff=   0.0000000   0.0000000   0.0000000   0.0000000   0.0000000   0.0000000   0.0000000   0.0000000   0.0000000   0.0000000
 NQMom=    0.0000000   0.0000000   0.0000000   0.0000000   0.0000000   0.0000000   0.0000000   0.0000000   0.0000000   0.0000000
 NMagM=    0.0000000   2.7928460   0.0000000   0.0000000   2.7928460   0.0000000   0.0000000   0.0000000   0.0000000   2.7928460

  Atom        41          42          43          44          45          46          47          48          49          50
 IAtWgt=           1           1          12           1           1           1          12          12           1           1
 AtmWgt=   1.0078250   1.0078250  12.0000000   1.0078250   1.0078250   1.0078250  12.0000000  12.0000000   1.0078250   1.0078250
 NucSpn=           1           1           0           1           1           1           0           0           1           1
 AtZEff=   0.0000000   0.0000000   0.0000000   0.0000000   0.0000000   0.0000000   0.0000000   0.0000000   0.0000000   0.0000000
 NQMom=    0.0000000   0.0000000   0.0000000   0.0000000   0.0000000   0.0000000   0.0000000   0.0000000   0.0000000   0.0000000
 NMagM=    2.7928460   2.7928460   0.0000000   2.7928460   2.7928460   2.7928460   0.0000000   0.0000000   2.7928460   2.7928460

  Atom        51          52          53          54          55          56          57          58          59          60
 IAtWgt=           1          12           1           1           1          12           1           1           1          12
 AtmWgt=   1.0078250  12.0000000   1.0078250   1.0078250   1.0078250  12.0000000   1.0078250   1.0078250   1.0078250  12.0000000
 NucSpn=           1           0           1           1           1           0           1           1           1           0
 AtZEff=   0.0000000   0.0000000   0.0000000   0.0000000   0.0000000   0.0000000   0.0000000   0.0000000   0.0000000   0.0000000
 NQMom=    0.0000000   0.0000000   0.0000000   0.0000000   0.0000000   0.0000000   0.0000000   0.0000000   0.0000000   0.0000000
 NMagM=    2.7928460   0.0000000   2.7928460   2.7928460   2.7928460   0.0000000   2.7928460   2.7928460   2.7928460   0.0000000

  Atom        61          62          63          64          65          66          67          68          69          70
 IAtWgt=          12          12           1           1           1          12           1           1           1          12
 AtmWgt=  12.0000000  12.0000000   1.0078250   1.0078250   1.0078250  12.0000000   1.0078250   1.0078250   1.0078250  12.0000000
 NucSpn=           0           0           1           1           1           0           1           1           1           0
 AtZEff=   0.0000000   0.0000000   0.0000000   0.0000000   0.0000000   0.0000000   0.0000000   0.0000000   0.0000000   0.0000000
 NQMom=    0.0000000   0.0000000   0.0000000   0.0000000   0.0000000   0.0000000   0.0000000   0.0000000   0.0000000   0.0000000
 NMagM=    0.0000000   0.0000000   2.7928460   2.7928460   2.7928460   0.0000000   2.7928460   2.7928460   2.7928460   0.0000000

  Atom        71          72          73          74          75          76          77          78          79          80
 IAtWgt=          12           1           1           1          12           1           1           1          12           1
 AtmWgt=  12.0000000   1.0078250   1.0078250   1.0078250  12.0000000   1.0078250   1.0078250   1.0078250  12.0000000   1.0078250
 NucSpn=           0           1           1           1           0           1           1           1           0           1
 AtZEff=   0.0000000   0.0000000   0.0000000   0.0000000   0.0000000   0.0000000   0.0000000   0.0000000   0.0000000   0.0000000
 NQMom=    0.0000000   0.0000000   0.0000000   0.0000000   0.0000000   0.0000000   0.0000000   0.0000000   0.0000000   0.0000000
 NMagM=    0.0000000   2.7928460   2.7928460   2.7928460   0.0000000   2.7928460   2.7928460   2.7928460   0.0000000   2.7928460

  Atom        81          82          83          84          85          86          87          88          89          90
 IAtWgt=           1           1          28          28          12          12          12           1          12          12
 AtmWgt=   1.0078250   1.0078250  27.9769284  27.9769284  12.0000000  12.0000000  12.0000000   1.0078250  12.0000000  12.0000000
 NucSpn=           1           1           0           0           0           0           0           1           0           0
 AtZEff=   0.0000000   0.0000000   0.0000000   0.0000000   0.0000000   0.0000000   0.0000000   0.0000000   0.0000000   0.0000000
 NQMom=    0.0000000   0.0000000   0.0000000   0.0000000   0.0000000   0.0000000   0.0000000   0.0000000   0.0000000   0.0000000
 NMagM=    2.7928460   2.7928460   0.0000000   0.0000000   0.0000000   0.0000000   0.0000000   2.7928460   0.0000000   0.0000000

  Atom        91          92          93          94          95          96          97          98          99         100
 IAtWgt=           1          12           1          12           1          12           1          12          12           1
 AtmWgt=   1.0078250  12.0000000   1.0078250  12.0000000   1.0078250  12.0000000   1.0078250  12.0000000  12.0000000   1.0078250
 NucSpn=           1           0           1           0           1           0           1           0           0           1
 AtZEff=   0.0000000   0.0000000   0.0000000   0.0000000   0.0000000   0.0000000   0.0000000   0.0000000   0.0000000   0.0000000
 NQMom=    0.0000000   0.0000000   0.0000000   0.0000000   0.0000000   0.0000000   0.0000000   0.0000000   0.0000000   0.0000000
 NMagM=    2.7928460   0.0000000   2.7928460   0.0000000   2.7928460   0.0000000   2.7928460   0.0000000   0.0000000   2.7928460

  Atom       101         102         103         104         105         106         107         108         109         110
 IAtWgt=          12          12          12          12           1          12          12           1          12           1
 AtmWgt=  12.0000000  12.0000000  12.0000000  12.0000000   1.0078250  12.0000000  12.0000000   1.0078250  12.0000000   1.0078250
 NucSpn=           0           0           0           0           1           0           0           1           0           1
 AtZEff=   0.0000000   0.0000000   0.0000000   0.0000000   0.0000000   0.0000000   0.0000000   0.0000000   0.0000000   0.0000000
 NQMom=    0.0000000   0.0000000   0.0000000   0.0000000   0.0000000   0.0000000   0.0000000   0.0000000   0.0000000   0.0000000
 NMagM=    0.0000000   0.0000000   0.0000000   0.0000000   2.7928460   0.0000000   0.0000000   2.7928460   0.0000000   2.7928460

  Atom       111         112         113         114         115         116         117         118         119         120
 IAtWgt=          12           1          12           1          12          12           1          12          12          12
 AtmWgt=  12.0000000   1.0078250  12.0000000   1.0078250  12.0000000  12.0000000   1.0078250  12.0000000  12.0000000  12.0000000
 NucSpn=           0           1           0           1           0           0           1           0           0           0
 AtZEff=   0.0000000   0.0000000   0.0000000   0.0000000   0.0000000   0.0000000   0.0000000   0.0000000   0.0000000   0.0000000
 NQMom=    0.0000000   0.0000000   0.0000000   0.0000000   0.0000000   0.0000000   0.0000000   0.0000000   0.0000000   0.0000000
 NMagM=    0.0000000   2.7928460   0.0000000   2.7928460   0.0000000   0.0000000   2.7928460   0.0000000   0.0000000   0.0000000

  Atom       121         122         123         124         125         126         127         128         129         130
 IAtWgt=          12           1           1           1          12           1           1           1          12          12
 AtmWgt=  12.0000000   1.0078250   1.0078250   1.0078250  12.0000000   1.0078250   1.0078250   1.0078250  12.0000000  12.0000000
 NucSpn=           0           1           1           1           0           1           1           1           0           0
 AtZEff=   0.0000000   0.0000000   0.0000000   0.0000000   0.0000000   0.0000000   0.0000000   0.0000000   0.0000000   0.0000000
 NQMom=    0.0000000   0.0000000   0.0000000   0.0000000   0.0000000   0.0000000   0.0000000   0.0000000   0.0000000   0.0000000
 NMagM=    0.0000000   2.7928460   2.7928460   2.7928460   0.0000000   2.7928460   2.7928460   2.7928460   0.0000000   0.0000000

  Atom       131         132         133         134         135         136         137         138         139         140
 IAtWgt=           1           1           1          12           1           1           1          12           1           1
 AtmWgt=   1.0078250   1.0078250   1.0078250  12.0000000   1.0078250   1.0078250   1.0078250  12.0000000   1.0078250   1.0078250
 NucSpn=           1           1           1           0           1           1           1           0           1           1
 AtZEff=   0.0000000   0.0000000   0.0000000   0.0000000   0.0000000   0.0000000   0.0000000   0.0000000   0.0000000   0.0000000
 NQMom=    0.0000000   0.0000000   0.0000000   0.0000000   0.0000000   0.0000000   0.0000000   0.0000000   0.0000000   0.0000000
 NMagM=    2.7928460   2.7928460   2.7928460   0.0000000   2.7928460   2.7928460   2.7928460   0.0000000   2.7928460   2.7928460

  Atom       141         142         143         144         145         146         147         148         149         150
 IAtWgt=           1          12          12          12           1           1           1          12           1           1
 AtmWgt=   1.0078250  12.0000000  12.0000000  12.0000000   1.0078250   1.0078250   1.0078250  12.0000000   1.0078250   1.0078250
 NucSpn=           1           0           0           0           1           1           1           0           1           1
 AtZEff=   0.0000000   0.0000000   0.0000000   0.0000000   0.0000000   0.0000000   0.0000000   0.0000000   0.0000000   0.0000000
 NQMom=    0.0000000   0.0000000   0.0000000   0.0000000   0.0000000   0.0000000   0.0000000   0.0000000   0.0000000   0.0000000
 NMagM=    2.7928460   0.0000000   0.0000000   0.0000000   2.7928460   2.7928460   2.7928460   0.0000000   2.7928460   2.7928460

  Atom       151         152         153         154         155         156         157         158         159         160
 IAtWgt=           1          12          12           1           1           1          12           1           1           1
 AtmWgt=   1.0078250  12.0000000  12.0000000   1.0078250   1.0078250   1.0078250  12.0000000   1.0078250   1.0078250   1.0078250
 NucSpn=           1           0           0           1           1           1           0           1           1           1
 AtZEff=   0.0000000   0.0000000   0.0000000   0.0000000   0.0000000   0.0000000   0.0000000   0.0000000   0.0000000   0.0000000
 NQMom=    0.0000000   0.0000000   0.0000000   0.0000000   0.0000000   0.0000000   0.0000000   0.0000000   0.0000000   0.0000000
 NMagM=    2.7928460   0.0000000   0.0000000   2.7928460   2.7928460   2.7928460   0.0000000   2.7928460   2.7928460   2.7928460

  Atom       161         162         163         164
 IAtWgt=          12           1           1           1
 AtmWgt=  12.0000000   1.0078250   1.0078250   1.0078250
 NucSpn=           0           1           1           1
 AtZEff=   0.0000000   0.0000000   0.0000000   0.0000000
 NQMom=    0.0000000   0.0000000   0.0000000   0.0000000
 NMagM=    0.0000000   2.7928460   2.7928460   2.7928460
 Leave Link  101 at Thu Jan  5 21:29:22 2012, MaxMem= 1073741824 cpu:       0.7
 (Enter /apps/gaussian/g09/g09/l202.exe)
 Stoichiometry    C76H84Si4
 Framework group  C1[X(C76H84Si4)]
 Deg. of freedom   486
 Full point group                 C1      NOp   1
 Largest Abelian subgroup         C1      NOp   1
 Largest concise Abelian subgroup C1      NOp   1
                         Standard orientation:                         
 ---------------------------------------------------------------------
 Center     Atomic      Atomic             Coordinates (Angstroms)
 Number     Number       Type             X           Y           Z
 ---------------------------------------------------------------------
      1         14           0       -9.031408    4.541841   -0.555041
      2         14           0       -4.159467   -5.714143    1.394357
      3          6           0       -8.066306    0.317585    0.463592
      4          6           0       -8.657774   -0.819583   -0.134084
      5          6           0       -9.840477   -0.733517   -0.894238
      6          1           0      -10.245872    0.116443   -1.015646
      7          6           0      -10.430059   -1.843553   -1.469191
      8          6           0      -11.632352   -1.766344   -2.240381
      9          1           0      -12.054290   -0.924452   -2.363281
     10          6           0      -12.181184   -2.871502   -2.800248
     11          1           0      -12.982337   -2.795413   -3.305981
     12          6           0      -11.565279   -4.143360   -2.637648
     13          1           0      -11.954708   -4.910691   -3.039725
     14          6           0      -10.429955   -4.268198   -1.913963
     15          1           0      -10.037414   -5.127393   -1.808539
     16          6           0       -9.805469   -3.131748   -1.303824
     17          6           0       -8.635334   -3.231013   -0.574924
     18          1           0       -8.223476   -4.081578   -0.477008
     19          6           0       -8.035258   -2.110629    0.027467
     20          6           0       -6.812950   -2.210133    0.750208
     21          6           0       -6.240497   -1.075619    1.381414
     22          6           0       -5.031961   -1.138535    2.094529
     23          1           0       -4.589206   -1.975148    2.169171
     24          6           0       -4.459979   -0.024455    2.693312
     25          6           0       -3.208004   -0.074178    3.372191
     26          1           0       -2.728672   -0.893314    3.409195
     27          6           0       -2.686095    1.029651    3.969681
     28          1           0       -1.844924    0.977684    4.406582
     29          6           0       -3.396341    2.267081    3.942197
     30          1           0       -3.035626    3.027220    4.382533
     31          6           0       -4.577619    2.363489    3.295356
     32          1           0       -5.035669    3.196119    3.283866
     33          6           0       -5.156708    1.234205    2.622984
     34          6           0       -6.341795    1.319267    1.912813
     35          1           0       -6.792792    2.154640    1.863221
     36          6           0       -6.898196    0.203869    1.260968
     37          6           0       -8.576539    1.632044    0.189768
     38          6           0       -8.884065    2.773408   -0.080620
     39          6           0       -8.536689    4.724042   -2.338297
     40          1           0       -7.577651    4.547145   -2.432460
     41          1           0       -8.731620    5.637105   -2.640024
     42          1           0       -9.042736    4.086245   -2.883786
     43          6           0      -10.788336    5.117297   -0.336094
     44          1           0      -11.387962    4.535983   -0.847781
     45          1           0      -10.871964    6.038657   -0.658113
     46          1           0      -11.027319    5.079858    0.613860
     47          6           0       -7.855667    5.501887    0.571885
     48          6           0       -7.971766    7.002434    0.273481
     49          1           0       -8.879546    7.307200    0.483212
     50          1           0       -7.784804    7.161454   -0.675354
     51          1           0       -7.327239    7.495259    0.822148
     52          6           0       -8.209699    5.257061    2.042569
     53          1           0       -8.134203    4.300563    2.241214
     54          1           0       -9.128391    5.554378    2.211136
     55          1           0       -7.593380    5.759715    2.614936
     56          6           0       -6.401099    5.062055    0.328670
     57          1           0       -5.807428    5.543797    0.941531
     58          1           0       -6.148958    5.264175   -0.597385
     59          1           0       -6.320966    4.097913    0.485709
     60          6           0       -6.104863   -3.454869    0.851907
     61          6           0       -5.413720   -4.442661    0.993326
     62          6           0       -3.926366   -5.708063    3.238899
     63          1           0       -3.678646   -4.806439    3.533575
     64          1           0       -3.215367   -6.337252    3.479730
     65          1           0       -4.762475   -5.976575    3.674368
     66          6           0       -4.752462   -7.391256    0.862822
     67          1           0       -5.628900   -7.569428    1.262947
     68          1           0       -4.112880   -8.072869    1.159595
     69          1           0       -4.828247   -7.416804   -0.114295
     70          6           0       -2.564649   -5.231795    0.505707
     71          6           0       -2.748976   -5.340720   -1.010321
     72          1           0       -3.492623   -4.767969   -1.291074
     73          1           0       -2.945710   -6.271043   -1.249962
     74          1           0       -1.927831   -5.054545   -1.461854
     75          6           0       -1.420660   -6.163679    0.923636
     76          1           0       -1.661477   -7.089782    0.715008
     77          1           0       -1.263065   -6.076584    1.887364
     78          1           0       -0.605946   -5.919827    0.436475
     79          6           0       -2.176812   -3.782195    0.852572
     80          1           0       -1.336508   -3.552802    0.403174
     81          1           0       -2.062432   -3.697803    1.822147
     82          1           0       -2.884371   -3.174998    0.552424
     83         14           0        4.437722    5.762895   -1.654888
     84         14           0        9.309653   -4.493101    0.294542
     85          6           0        5.402784    1.538635   -0.636228
     86          6           0        4.811360    0.401469   -1.233885
     87          6           0        3.628672    0.487529   -1.994039
     88          1           0        3.223245    1.337497   -2.115463
     89          6           0        3.039081   -0.622504   -2.569008
     90          6           0        1.836756   -0.545282   -3.340230
     91          1           0        1.414824    0.296604   -3.463113
     92          6           0        1.287922   -1.650466   -3.900015
     93          1           0        0.486775   -1.574355   -4.405820
     94          6           0        1.903848   -2.922256   -3.737474
     95          1           0        1.514379   -3.689609   -4.139508
     96          6           0        3.039172   -3.047105   -3.013749
     97          1           0        3.431726   -3.906300   -2.908348
     98          6           0        3.663680   -1.910700   -2.403638
     99          6           0        4.833768   -2.009966   -1.674741
    100          1           0        5.245642   -2.860545   -1.576819
    101          6           0        5.433818   -0.889576   -1.072355
    102          6           0        6.656215   -0.989081   -0.349592
    103          6           0        7.228667    0.145429    0.281615
    104          6           0        8.437127    0.082517    0.994716
    105          1           0        8.879953   -0.754098    1.069367
    106          6           0        9.009117    1.196588    1.593501
    107          6           0       10.261134    1.146871    2.272388
    108          1           0       10.740417    0.327737    2.309381
    109          6           0       10.783036    2.250700    2.869872
    110          1           0       11.624191    2.198734    3.306773
    111          6           0       10.072772    3.488125    2.842387
    112          1           0       10.433522    4.248269    3.282726
    113          6           0        8.891549    3.584538    2.195554
    114          1           0        8.433494    4.417166    2.184066
    115          6           0        8.312365    2.455249    1.523168
    116          6           0        7.127374    2.540319    0.813011
    117          1           0        6.676328    3.375692    0.763414
    118          6           0        6.570968    1.424916    0.161167
    119          6           0        4.892607    2.853094   -0.910014
    120          6           0        4.585100    3.994461   -1.180450
    121          6           0        4.932410    5.945095   -3.438137
    122          1           0        5.891433    5.768194   -3.532276
    123          1           0        4.737532    6.858143   -3.739782
    124          1           0        4.426428    5.307296   -3.983596
    125          6           0        2.680794    6.338341   -1.435879
    126          1           0        2.081139    5.757036   -1.947625
    127          1           0        2.597146    7.259712   -1.757952
    128          1           0        2.441795    6.300912   -0.485977
    129          6           0        5.613498    6.722940   -0.527943
    130          6           0        5.497327    8.223481   -0.826325
    131          1           0        4.589545    8.528246   -0.616593
    132          1           0        5.684260    8.382490   -1.775127
    133          1           0        6.141878    8.716309   -0.277668
    134          6           0        5.259461    6.478110    0.942771
    135          1           0        5.334897    5.521609    1.141404
    136          1           0        4.340715    6.775427    1.111324
    137          1           0        5.875779    6.980765    1.515133
    138          6           0        7.067982    6.283105   -0.771163
    139          1           0        7.661647    6.764840   -0.158264
    140          1           0        7.320153    6.485229   -1.697212
    141          1           0        7.148116    5.318956   -0.614089
    142          6           0        7.364303   -2.233819   -0.247893
    143          6           0        8.055423   -3.221634   -0.106480
    144          6           0        9.542744   -4.487006    2.139093
    145          1           0        9.790438   -3.585349    2.433766
    146          1           0       10.253782   -5.116182    2.379936
    147          1           0        8.706600   -4.755551    2.574546
    148          6           0        8.716692   -6.170161   -0.236967
    149          1           0        7.840192   -6.348382    0.163135
    150          1           0        9.356262   -6.851819    0.059787
    151          1           0        8.640902   -6.195753   -1.214097
    152          6           0       10.904459   -4.010773   -0.594115
    153          6           0       10.720168   -4.119627   -2.110167
    154          1           0        9.976456   -3.546883   -2.390848
    155          1           0       10.523444   -5.049959   -2.349786
    156          1           0       11.541269   -3.833554   -2.561638
    157          6           0       12.048456   -4.942644   -0.176179
    158          1           0       11.807599   -5.868780   -0.384824
    159          1           0       12.206070   -4.855521    0.787565
    160          1           0       12.863194   -4.698799   -0.663335
    161          6           0       11.292263   -2.561124   -0.247244
    162          1           0       12.132569   -2.331757   -0.696644
    163          1           0       11.406675   -2.476800    0.722320
    164          1           0       10.584725   -1.953952   -0.547389
 ---------------------------------------------------------------------
 Rotational constants (GHZ):      0.0236984      0.0079750      0.0065466
 Leave Link  202 at Thu Jan  5 21:29:22 2012, MaxMem= 1073741824 cpu:       0.0
 (Enter /apps/gaussian/g09/g09/l301.exe)
 Standard basis: 6-31G(d,p) (6D, 7F)
 Ernie: Thresh=  0.10000D-02 Tol=  0.10000D-05 Strict=F.
 There are  1636 symmetry adapted basis functions of A   symmetry.
 Integral buffers will be    131072 words long.
 Raffenetti 2 integral format.
 Two-electron integral symmetry is turned on.
  1636 basis functions,  2924 primitive gaussians,  1636 cartesian basis functions
   298 alpha electrons      298 beta electrons
       nuclear repulsion energy     12545.2221180109 Hartrees.
 IExCor=  402 DFT=T Ex+Corr=B3LYP ExCW=0 ScaHFX=  0.200000
 ScaDFX=  0.800000  0.720000  1.000000  0.810000 ScalE2=  1.000000  1.000000
 IRadAn=      0 IRanWt=     -1 IRanGd=            0 ICorTp=0
 NAtoms=  164 NActive=  164 NUniq=  164 SFac= 7.50D-01 NAtFMM=   80 NAOKFM=T Big=T
 Leave Link  301 at Thu Jan  5 21:29:22 2012, MaxMem= 1073741824 cpu:       0.4
 (Enter /apps/gaussian/g09/g09/l302.exe)
 NPDir=0 NMtPBC=     1 NCelOv=     1 NCel=       1 NClECP=     1 NCelD=      1
         NCelK=      1 NCelE2=     1 NClLst=     1 CellRange=     0.0.
 One-electron integrals computed using PRISM.
 NBasis=  1636 RedAO= T  NBF=  1636
 NBsUse=  1636 1.00D-06 NBFU=  1636
 Precomputing XC quadrature grid using
 IXCGrd= 2 IRadAn=           0 IRanWt=          -1 IRanGd=           0 AccXCQ= 1.00D-10.
 NRdTot=   10812 NPtTot=     1387216 NUsed=     1465045 NTot=     1465077
 NSgBfM=   960   967   970   970   970 NAtAll=   164   144.
 Leave Link  302 at Thu Jan  5 21:29:34 2012, MaxMem= 1073741824 cpu:      98.4
 (Enter /apps/gaussian/g09/g09/l308.exe)
 Leave Link  308 at Thu Jan  5 21:29:35 2012, MaxMem= 1073741824 cpu:       5.4
 (Enter /apps/gaussian/g09/g09/l303.exe)
 DipDrv:  MaxL=1.
 Leave Link  303 at Thu Jan  5 21:29:35 2012, MaxMem= 1073741824 cpu:       3.8
 (Enter /apps/gaussian/g09/g09/l401.exe)
 Harris functional with IExCor=  402 diagonalized for initial guess.
 ExpMin= 7.78D-02 ExpMax= 1.61D+04 ExpMxC= 2.43D+03 IAcc=2 IRadAn=         0 AccDes= 0.00D+00
 HarFok:  IExCor=  402 AccDes= 0.00D+00 IRadAn=         0 IDoV= 1
 ScaDFX=  1.000000  1.000000  1.000000  1.000000
 FoFCou: FMM=F IPFlag=           0 FMFlag=      100000 FMFlg1=        2001
         NFxFlg=           0 DoJE=T BraDBF=F KetDBF=T FulRan=T
         Omega=  0.000000  0.000000  1.000000  0.000000  0.000000 ICntrl=     500 IOpCl=  0
         NMat0=    1 NMatS0=    1 NMatT0=    0 NMatD0=    1 NMtDS0=    0 NMtDT0=    0
         I1Cent=           4 NGrid=           0.
 Petite list used in FoFCou.
 Harris En= -4105.75518111463    
 Initial guess orbital symmetries:
       Occupied  (A) (A) (A) (A) (A) (A) (A) (A) (A) (A) (A) (A)
                 (A) (A) (A) (A) (A) (A) (A) (A) (A) (A) (A) (A)
                 (A) (A) (A) (A) (A) (A) (A) (A) (A) (A) (A) (A)
                 (A) (A) (A) (A) (A) (A) (A) (A) (A) (A) (A) (A)
                 (A) (A) (A) (A) (A) (A) (A) (A) (A) (A) (A) (A)
                 (A) (A) (A) (A) (A) (A) (A) (A) (A) (A) (A) (A)
                 (A) (A) (A) (A) (A) (A) (A) (A) (A) (A) (A) (A)
                 (A) (A) (A) (A) (A) (A) (A) (A) (A) (A) (A) (A)
                 (A) (A) (A) (A) (A) (A) (A) (A) (A) (A) (A) (A)
                 (A) (A) (A) (A) (A) (A) (A) (A) (A) (A) (A) (A)
                 (A) (A) (A) (A) (A) (A) (A) (A) (A) (A) (A) (A)
                 (A) (A) (A) (A) (A) (A) (A) (A) (A) (A) (A) (A)
                 (A) (A) (A) (A) (A) (A) (A) (A) (A) (A) (A) (A)
                 (A) (A) (A) (A) (A) (A) (A) (A) (A) (A) (A) (A)
                 (A) (A) (A) (A) (A) (A) (A) (A) (A) (A) (A) (A)
                 (A) (A) (A) (A) (A) (A) (A) (A) (A) (A) (A) (A)
                 (A) (A) (A) (A) (A) (A) (A) (A) (A) (A) (A) (A)
                 (A) (A) (A) (A) (A) (A) (A) (A) (A) (A) (A) (A)
                 (A) (A) (A) (A) (A) (A) (A) (A) (A) (A) (A) (A)
                 (A) (A) (A) (A) (A) (A) (A) (A) (A) (A) (A) (A)
                 (A) (A) (A) (A) (A) (A) (A) (A) (A) (A) (A) (A)
                 (A) (A) (A) (A) (A) (A) (A) (A) (A) (A) (A) (A)
                 (A) (A) (A) (A) (A) (A) (A) (A) (A) (A) (A) (A)
                 (A) (A) (A) (A) (A) (A) (A) (A) (A) (A) (A) (A)
                 (A) (A) (A) (A) (A) (A) (A) (A) (A) (A)
       Virtual   (A) (A) (A) (A) (A) (A) (A) (A) (A) (A) (A) (A)
                 (A) (A) (A) (A) (A) (A) (A) (A) (A) (A) (A) (A)
                 (A) (A) (A) (A) (A) (A) (A) (A) (A) (A) (A) (A)
                 (A) (A) (A) (A) (A) (A) (A) (A) (A) (A) (A) (A)
                 (A) (A) (A) (A) (A) (A) (A) (A) (A) (A) (A) (A)
                 (A) (A) (A) (A) (A) (A) (A) (A) (A) (A) (A) (A)
                 (A) (A) (A) (A) (A) (A) (A) (A) (A) (A) (A) (A)
                 (A) (A) (A) (A) (A) (A) (A) (A) (A) (A) (A) (A)
                 (A) (A) (A) (A) (A) (A) (A) (A) (A) (A) (A) (A)
                 (A) (A) (A) (A) (A) (A) (A) (A) (A) (A) (A) (A)
                 (A) (A) (A) (A) (A) (A) (A) (A) (A) (A) (A) (A)
                 (A) (A) (A) (A) (A) (A) (A) (A) (A) (A) (A) (A)
                 (A) (A) (A) (A) (A) (A) (A) (A) (A) (A) (A) (A)
                 (A) (A) (A) (A) (A) (A) (A) (A) (A) (A) (A) (A)
                 (A) (A) (A) (A) (A) (A) (A) (A) (A) (A) (A) (A)
                 (A) (A) (A) (A) (A) (A) (A) (A) (A) (A) (A) (A)
                 (A) (A) (A) (A) (A) (A) (A) (A) (A) (A) (A) (A)
                 (A) (A) (A) (A) (A) (A) (A) (A) (A) (A) (A) (A)
                 (A) (A) (A) (A) (A) (A) (A) (A) (A) (A) (A) (A)
                 (A) (A) (A) (A) (A) (A) (A) (A) (A) (A) (A) (A)
                 (A) (A) (A) (A) (A) (A) (A) (A) (A) (A) (A) (A)
                 (A) (A) (A) (A) (A) (A) (A) (A) (A) (A) (A) (A)
                 (A) (A) (A) (A) (A) (A) (A) (A) (A) (A) (A) (A)
                 (A) (A) (A) (A) (A) (A) (A) (A) (A) (A) (A) (A)
                 (A) (A) (A) (A) (A) (A) (A) (A) (A) (A) (A) (A)
                 (A) (A) (A) (A) (A) (A) (A) (A) (A) (A) (A) (A)
                 (A) (A) (A) (A) (A) (A) (A) (A) (A) (A) (A) (A)
                 (A) (A) (A) (A) (A) (A) (A) (A) (A) (A) (A) (A)
                 (A) (A) (A) (A) (A) (A) (A) (A) (A) (A) (A) (A)
                 (A) (A) (A) (A) (A) (A) (A) (A) (A) (A) (A) (A)
                 (A) (A) (A) (A) (A) (A) (A) (A) (A) (A) (A) (A)
                 (A) (A) (A) (A) (A) (A) (A) (A) (A) (A) (A) (A)
                 (A) (A) (A) (A) (A) (A) (A) (A) (A) (A) (A) (A)
                 (A) (A) (A) (A) (A) (A) (A) (A) (A) (A) (A) (A)
                 (A) (A) (A) (A) (A) (A) (A) (A) (A) (A) (A) (A)
                 (A) (A) (A) (A) (A) (A) (A) (A) (A) (A) (A) (A)
                 (A) (A) (A) (A) (A) (A) (A) (A) (A) (A) (A) (A)
                 (A) (A) (A) (A) (A) (A) (A) (A) (A) (A) (A) (A)
                 (A) (A) (A) (A) (A) (A) (A) (A) (A) (A) (A) (A)
                 (A) (A) (A) (A) (A) (A) (A) (A) (A) (A) (A) (A)
                 (A) (A) (A) (A) (A) (A) (A) (A) (A) (A) (A) (A)
                 (A) (A) (A) (A) (A) (A) (A) (A) (A) (A) (A) (A)
                 (A) (A) (A) (A) (A) (A) (A) (A) (A) (A) (A) (A)
                 (A) (A) (A) (A) (A) (A) (A) (A) (A) (A) (A) (A)
                 (A) (A) (A) (A) (A) (A) (A) (A) (A) (A) (A) (A)
                 (A) (A) (A) (A) (A) (A) (A) (A) (A) (A) (A) (A)
                 (A) (A) (A) (A) (A) (A) (A) (A) (A) (A) (A) (A)
                 (A) (A) (A) (A) (A) (A) (A) (A) (A) (A) (A) (A)
                 (A) (A) (A) (A) (A) (A) (A) (A) (A) (A) (A) (A)
                 (A) (A) (A) (A) (A) (A) (A) (A) (A) (A) (A) (A)
                 (A) (A) (A) (A) (A) (A) (A) (A) (A) (A) (A) (A)
                 (A) (A) (A) (A) (A) (A) (A) (A) (A) (A) (A) (A)
                 (A) (A) (A) (A) (A) (A) (A) (A) (A) (A) (A) (A)
                 (A) (A) (A) (A) (A) (A) (A) (A) (A) (A) (A) (A)
                 (A) (A) (A) (A) (A) (A) (A) (A) (A) (A) (A) (A)
                 (A) (A) (A) (A) (A) (A) (A) (A) (A) (A) (A) (A)
                 (A) (A) (A) (A) (A) (A) (A) (A) (A) (A) (A) (A)
                 (A) (A) (A) (A) (A) (A) (A) (A) (A) (A) (A) (A)
                 (A) (A) (A) (A) (A) (A) (A) (A) (A) (A) (A) (A)
                 (A) (A) (A) (A) (A) (A) (A) (A) (A) (A) (A) (A)
                 (A) (A) (A) (A) (A) (A) (A) (A) (A) (A) (A) (A)
                 (A) (A) (A) (A) (A) (A) (A) (A) (A) (A) (A) (A)
                 (A) (A) (A) (A) (A) (A) (A) (A) (A) (A) (A) (A)
                 (A) (A) (A) (A) (A) (A) (A) (A) (A) (A) (A) (A)
                 (A) (A) (A) (A) (A) (A) (A) (A) (A) (A) (A) (A)
                 (A) (A) (A) (A) (A) (A) (A) (A) (A) (A) (A) (A)
                 (A) (A) (A) (A) (A) (A) (A) (A) (A) (A) (A) (A)
                 (A) (A) (A) (A) (A) (A) (A) (A) (A) (A) (A) (A)
                 (A) (A) (A) (A) (A) (A) (A) (A) (A) (A) (A) (A)
                 (A) (A) (A) (A) (A) (A) (A) (A) (A) (A) (A) (A)
                 (A) (A) (A) (A) (A) (A) (A) (A) (A) (A) (A) (A)
                 (A) (A) (A) (A) (A) (A) (A) (A) (A) (A) (A) (A)
                 (A) (A) (A) (A) (A) (A) (A) (A) (A) (A) (A) (A)
                 (A) (A) (A) (A) (A) (A) (A) (A) (A) (A) (A) (A)
                 (A) (A) (A) (A) (A) (A) (A) (A) (A) (A) (A) (A)
                 (A) (A) (A) (A) (A) (A) (A) (A) (A) (A) (A) (A)
                 (A) (A) (A) (A) (A) (A) (A) (A) (A) (A) (A) (A)
                 (A) (A) (A) (A) (A) (A) (A) (A) (A) (A) (A) (A)
                 (A) (A) (A) (A) (A) (A) (A) (A) (A) (A) (A) (A)
                 (A) (A) (A) (A) (A) (A) (A) (A) (A) (A) (A) (A)
                 (A) (A) (A) (A) (A) (A) (A) (A) (A) (A) (A) (A)
                 (A) (A) (A) (A) (A) (A) (A) (A) (A) (A) (A) (A)
                 (A) (A) (A) (A) (A) (A) (A) (A) (A) (A) (A) (A)
                 (A) (A) (A) (A) (A) (A) (A) (A) (A) (A) (A) (A)
                 (A) (A) (A) (A) (A) (A) (A) (A) (A) (A) (A) (A)
                 (A) (A) (A) (A) (A) (A) (A) (A) (A) (A) (A) (A)
                 (A) (A) (A) (A) (A) (A) (A) (A) (A) (A) (A) (A)
                 (A) (A) (A) (A) (A) (A) (A) (A) (A) (A) (A) (A)
                 (A) (A) (A) (A) (A) (A) (A) (A) (A) (A) (A) (A)
                 (A) (A) (A) (A) (A) (A) (A) (A) (A) (A) (A) (A)
                 (A) (A) (A) (A) (A) (A) (A) (A) (A) (A) (A) (A)
                 (A) (A) (A) (A) (A) (A) (A) (A) (A) (A) (A) (A)
                 (A) (A) (A) (A) (A) (A) (A) (A) (A) (A) (A) (A)
                 (A) (A) (A) (A) (A) (A) (A) (A) (A) (A) (A) (A)
                 (A) (A) (A) (A) (A) (A) (A) (A) (A) (A) (A) (A)
                 (A) (A) (A) (A) (A) (A) (A) (A) (A) (A) (A) (A)
                 (A) (A) (A) (A) (A) (A) (A) (A) (A) (A) (A) (A)
                 (A) (A) (A) (A) (A) (A) (A) (A) (A) (A) (A) (A)
                 (A) (A) (A) (A) (A) (A) (A) (A) (A) (A) (A) (A)
                 (A) (A) (A) (A) (A) (A) (A) (A) (A) (A) (A) (A)
                 (A) (A) (A) (A) (A) (A) (A) (A) (A) (A) (A) (A)
                 (A) (A) (A) (A) (A) (A) (A) (A) (A) (A) (A) (A)
                 (A) (A) (A) (A) (A) (A) (A) (A) (A) (A) (A) (A)
                 (A) (A) (A) (A) (A) (A) (A) (A) (A) (A) (A) (A)
                 (A) (A) (A) (A) (A) (A) (A) (A) (A) (A) (A) (A)
                 (A) (A) (A) (A) (A) (A) (A) (A) (A) (A) (A) (A)
                 (A) (A) (A) (A) (A) (A) (A) (A) (A) (A) (A) (A)
                 (A) (A) (A) (A) (A) (A) (A) (A) (A) (A) (A) (A)
                 (A) (A) (A) (A) (A) (A) (A) (A) (A) (A) (A) (A)
                 (A) (A) (A) (A) (A) (A) (A) (A) (A) (A) (A) (A)
                 (A) (A) (A) (A) (A) (A) (A) (A) (A) (A) (A) (A)
                 (A) (A) (A) (A) (A) (A)
 The electronic state of the initial guess is 1-A.
 Leave Link  401 at Thu Jan  5 21:29:56 2012, MaxMem= 1073741824 cpu:     162.3
 (Enter /apps/gaussian/g09/g09/l502.exe)
 Closed shell SCF:
 Requested convergence on RMS density matrix=1.00D-08 within 128 cycles.
 Requested convergence on MAX density matrix=1.00D-06.
 Requested convergence on             energy=1.00D-06.
 No special actions if energy rises.
 Using DIIS extrapolation, IDIIS=  1040.
 Integral symmetry usage will be decided dynamically.
      1463556 words used for storage of precomputed grid.
 IEnd=     9536634 IEndB=     9536634 NGot=  1073741824 MDV=  1066899963
 LenX=  1066899963 LenY=  1064221831
 Fock matrices will be formed incrementally for  20 cycles.
 Integral accuracy reduced to 1.0D-05 until final iterations.

 Cycle   1  Pass 0  IDiag  1:
 FoFCou: FMM=T IPFlag=           0 FMFlag=      100000 FMFlg1=        2001
         NFxFlg=           0 DoJE=F BraDBF=F KetDBF=F FulRan=T
         Omega=  0.000000  0.000000  1.000000  0.000000  0.000000 ICntrl=       0 IOpCl=  0
         NMat0=    1 NMatS0=    1 NMatT0=    0 NMatD0=    1 NMtDS0=    0 NMtDT0=    0
         I1Cent=           0 NGrid=           0.
 Symmetry not used in FoFCou.
 FMM levels:  10  Number of levels for PrismC:   9
 E= -4100.20605046247    
 DIIS: error= 4.05D-02 at cycle   1 NSaved=   1.
 NSaved= 1 IEnMin= 1 EnMin= -4100.20605046247     IErMin= 1 ErrMin= 4.05D-02
 ErrMax= 4.05D-02 EMaxC= 1.00D-01 BMatC= 3.44D+00 BMatP= 3.44D+00
 IDIUse=3 WtCom= 5.95D-01 WtEn= 4.05D-01
 Coeff-Com:  0.100D+01
 Coeff-En:   0.100D+01
 Coeff:      0.100D+01
 Gap=     0.082 Goal=   None    Shift=    0.000
 GapD=    0.082 DampG=0.500 DampE=0.500 DampFc=0.2500 IDamp=-1.
 Damping current iteration by 2.50D-01
 RMSDP=2.74D-03 MaxDP=2.24D-01              OVMax= 2.70D-01

 Cycle   2  Pass 0  IDiag  1:
 RMSU=  4.60D-04    CP:  9.74D-01
 E= -4101.50188039749     Delta-E=       -1.295829935021 Rises=F Damp=T
 DIIS: error= 2.05D-02 at cycle   2 NSaved=   2.
 NSaved= 2 IEnMin= 2 EnMin= -4101.50188039749     IErMin= 2 ErrMin= 2.05D-02
 ErrMax= 2.05D-02 EMaxC= 1.00D-01 BMatC= 9.31D-01 BMatP= 3.44D+00
 IDIUse=3 WtCom= 7.95D-01 WtEn= 2.05D-01
 Coeff-Com: -0.923D+00 0.192D+01
 Coeff-En:   0.000D+00 0.100D+01
 Coeff:     -0.734D+00 0.173D+01
 Gap=     0.095 Goal=   None    Shift=    0.000
 RMSDP=1.27D-03 MaxDP=1.10D-01 DE=-1.30D+00 OVMax= 2.58D-01

 Cycle   3  Pass 0  IDiag  1:
 RMSU=  6.18D-04    CP:  9.15D-01  2.19D+00
 E= -4103.36052366761     Delta-E=       -1.858643270120 Rises=F Damp=F
 DIIS: error= 1.82D-02 at cycle   3 NSaved=   3.
 NSaved= 3 IEnMin= 3 EnMin= -4103.36052366761     IErMin= 3 ErrMin= 1.82D-02
 ErrMax= 1.82D-02 EMaxC= 1.00D-01 BMatC= 3.88D-01 BMatP= 9.31D-01
 IDIUse=3 WtCom= 8.18D-01 WtEn= 1.82D-01
 Coeff-Com: -0.561D+00 0.117D+01 0.387D+00
 Coeff-En:   0.000D+00 0.000D+00 0.100D+01
 Coeff:     -0.459D+00 0.961D+00 0.499D+00
 Gap=     0.082 Goal=   None    Shift=    0.000
 RMSDP=7.00D-04 MaxDP=7.23D-02 DE=-1.86D+00 OVMax= 1.60D-01

 Cycle   4  Pass 0  IDiag  1:
 RMSU=  3.49D-04    CP:  9.19D-01  2.25D+00  4.33D-01
 E= -4103.56727932027     Delta-E=       -0.206755652653 Rises=F Damp=F
 DIIS: error= 1.50D-02 at cycle   4 NSaved=   4.
 NSaved= 4 IEnMin= 4 EnMin= -4103.56727932027     IErMin= 4 ErrMin= 1.50D-02
 ErrMax= 1.50D-02 EMaxC= 1.00D-01 BMatC= 2.25D-01 BMatP= 3.88D-01
 IDIUse=3 WtCom= 8.50D-01 WtEn= 1.50D-01
 Coeff-Com: -0.728D-01 0.202D+00 0.405D+00 0.465D+00
 Coeff-En:   0.000D+00 0.000D+00 0.395D+00 0.605D+00
 Coeff:     -0.618D-01 0.172D+00 0.403D+00 0.486D+00
 Gap=     0.072 Goal=   None    Shift=    0.000
 RMSDP=3.07D-04 MaxDP=3.67D-02 DE=-2.07D-01 OVMax= 7.12D-02

 Cycle   5  Pass 0  IDiag  1:
 RMSU=  7.44D-05    CP:  9.20D-01  2.15D+00  6.36D-01  5.60D-01
 E= -4103.81791127343     Delta-E=       -0.250631953168 Rises=F Damp=F
 DIIS: error= 1.06D-03 at cycle   5 NSaved=   5.
 NSaved= 5 IEnMin= 5 EnMin= -4103.81791127343     IErMin= 5 ErrMin= 1.06D-03
 ErrMax= 1.06D-03 EMaxC= 1.00D-01 BMatC= 3.87D-03 BMatP= 2.25D-01
 IDIUse=3 WtCom= 9.89D-01 WtEn= 1.06D-02
 Coeff-Com:  0.127D-01-0.525D-02 0.158D+00 0.236D+00 0.599D+00
 Coeff-En:   0.000D+00 0.000D+00 0.000D+00 0.000D+00 0.100D+01
 Coeff:      0.125D-01-0.519D-02 0.156D+00 0.233D+00 0.603D+00
 Gap=     0.071 Goal=   None    Shift=    0.000
 RMSDP=6.92D-05 MaxDP=9.58D-03 DE=-2.51D-01 OVMax= 1.60D-02

 Cycle   6  Pass 0  IDiag  1:
 RMSU=  3.28D-05    CP:  9.20D-01  2.15D+00  6.52D-01  5.66D-01  5.32D-01
 E= -4103.82097132650     Delta-E=       -0.003060053063 Rises=F Damp=F
 DIIS: error= 7.02D-04 at cycle   6 NSaved=   6.
 NSaved= 6 IEnMin= 6 EnMin= -4103.82097132650     IErMin= 6 ErrMin= 7.02D-04
 ErrMax= 7.02D-04 EMaxC= 1.00D-01 BMatC= 8.46D-04 BMatP= 3.87D-03
 IDIUse=3 WtCom= 9.93D-01 WtEn= 7.02D-03
 Coeff-Com:  0.125D-01-0.195D-01 0.472D-01 0.835D-01 0.363D+00 0.513D+00
 Coeff-En:   0.000D+00 0.000D+00 0.000D+00 0.000D+00 0.185D+00 0.815D+00
 Coeff:      0.124D-01-0.193D-01 0.469D-01 0.829D-01 0.362D+00 0.515D+00
 Gap=     0.071 Goal=   None    Shift=    0.000
 RMSDP=2.99D-05 MaxDP=2.60D-03 DE=-3.06D-03 OVMax= 1.56D-02

 Cycle   7  Pass 0  IDiag  1:
 RMSU=  1.35D-05    CP:  9.20D-01  2.16D+00  6.48D-01  5.73D-01  6.29D-01
                    CP:  5.68D-01
 E= -4103.82172541084     Delta-E=       -0.000754084340 Rises=F Damp=F
 DIIS: error= 4.12D-04 at cycle   7 NSaved=   7.
 NSaved= 7 IEnMin= 7 EnMin= -4103.82172541084     IErMin= 7 ErrMin= 4.12D-04
 ErrMax= 4.12D-04 EMaxC= 1.00D-01 BMatC= 1.89D-04 BMatP= 8.46D-04
 IDIUse=3 WtCom= 9.96D-01 WtEn= 4.12D-03
 Coeff-Com:  0.538D-02-0.958D-02 0.130D-01 0.275D-01 0.172D+00 0.356D+00
 Coeff-Com:  0.436D+00
 Coeff-En:   0.000D+00 0.000D+00 0.000D+00 0.000D+00 0.000D+00 0.194D+00
 Coeff-En:   0.806D+00
 Coeff:      0.536D-02-0.954D-02 0.129D-01 0.274D-01 0.171D+00 0.355D+00
 Coeff:      0.437D+00
 Gap=     0.071 Goal=   None    Shift=    0.000
 RMSDP=1.50D-05 MaxDP=1.96D-03 DE=-7.54D-04 OVMax= 1.14D-02

 Cycle   8  Pass 0  IDiag  1:
 RMSU=  5.69D-06    CP:  9.20D-01  2.16D+00  6.49D-01  5.75D-01  6.36D-01
                    CP:  6.39D-01  3.64D-01
 E= -4103.82189318569     Delta-E=       -0.000167774855 Rises=F Damp=F
 DIIS: error= 2.21D-04 at cycle   8 NSaved=   8.
 NSaved= 8 IEnMin= 8 EnMin= -4103.82189318569     IErMin= 8 ErrMin= 2.21D-04
 ErrMax= 2.21D-04 EMaxC= 1.00D-01 BMatC= 4.60D-05 BMatP= 1.89D-04
 IDIUse=3 WtCom= 9.98D-01 WtEn= 2.21D-03
 Coeff-Com:  0.177D-02-0.352D-02 0.309D-02 0.866D-02 0.776D-01 0.200D+00
 Coeff-Com:  0.339D+00 0.374D+00
 Coeff-En:   0.000D+00 0.000D+00 0.000D+00 0.000D+00 0.000D+00 0.000D+00
 Coeff-En:   0.232D+00 0.768D+00
 Coeff:      0.176D-02-0.351D-02 0.308D-02 0.864D-02 0.774D-01 0.200D+00
 Coeff:      0.339D+00 0.375D+00
 Gap=     0.071 Goal=   None    Shift=    0.000
 RMSDP=6.49D-06 MaxDP=7.41D-04 DE=-1.68D-04 OVMax= 4.83D-03

 Initial convergence to 1.0D-05 achieved.  Increase integral accuracy.
 Cycle   9  Pass 1  IDiag  1:
 E= -4103.82155954564     Delta-E=        0.000333640051 Rises=F Damp=F
 DIIS: error= 1.91D-04 at cycle   1 NSaved=   1.
 NSaved= 1 IEnMin= 1 EnMin= -4103.82155954564     IErMin= 1 ErrMin= 1.91D-04
 ErrMax= 1.91D-04 EMaxC= 1.00D-01 BMatC= 1.97D-05 BMatP= 1.97D-05
 IDIUse=3 WtCom= 9.98D-01 WtEn= 1.91D-03
 Coeff-Com:  0.100D+01
 Coeff-En:   0.100D+01
 Coeff:      0.100D+01
 Gap=     0.071 Goal=   None    Shift=    0.000
 RMSDP=6.49D-06 MaxDP=7.41D-04 DE= 3.34D-04 OVMax= 2.97D-03

 Cycle  10  Pass 1  IDiag  1:
 RMSU=  6.17D-05    CP:  1.00D+00
 E= -4103.82155668222     Delta-E=        0.000002863420 Rises=F Damp=F
 DIIS: error= 1.20D-04 at cycle   2 NSaved=   2.
 NSaved= 2 IEnMin= 1 EnMin= -4103.82155954564     IErMin= 2 ErrMin= 1.20D-04
 ErrMax= 1.20D-04 EMaxC= 1.00D-01 BMatC= 1.70D-05 BMatP= 1.97D-05
 IDIUse=3 WtCom= 9.99D-01 WtEn= 1.20D-03
 Coeff-Com:  0.473D+00 0.527D+00
 Coeff-En:   0.552D+00 0.448D+00
 Coeff:      0.473D+00 0.527D+00
 Gap=     0.071 Goal=   None    Shift=    0.000
 RMSDP=6.56D-06 MaxDP=7.88D-04 DE= 2.86D-06 OVMax= 5.01D-03

 Cycle  11  Pass 1  IDiag  1:
 RMSU=  4.63D-06    CP:  1.00D+00  1.00D+00
 E= -4103.82155288698     Delta-E=        0.000003795241 Rises=F Damp=F
 DIIS: error= 1.49D-04 at cycle   3 NSaved=   3.
 NSaved= 3 IEnMin= 1 EnMin= -4103.82155954564     IErMin= 2 ErrMin= 1.20D-04
 ErrMax= 1.49D-04 EMaxC= 1.00D-01 BMatC= 1.94D-05 BMatP= 1.70D-05
 IDIUse=3 WtCom= 4.51D-01 WtEn= 5.49D-01
 Coeff-Com:  0.469D-01 0.501D+00 0.452D+00
 Coeff-En:   0.000D+00 0.529D+00 0.471D+00
 Coeff:      0.211D-01 0.517D+00 0.462D+00
 Gap=     0.071 Goal=   None    Shift=    0.000
 RMSDP=3.89D-06 MaxDP=4.89D-04 DE= 3.80D-06 OVMax= 3.12D-03

 Cycle  12  Pass 1  IDiag  1:
 RMSU=  9.16D-07    CP:  1.00D+00  1.01D+00  4.47D-01
 E= -4103.82157541753     Delta-E=       -0.000022530552 Rises=F Damp=F
 DIIS: error= 2.25D-05 at cycle   4 NSaved=   4.
 NSaved= 4 IEnMin= 4 EnMin= -4103.82157541753     IErMin= 4 ErrMin= 2.25D-05
 ErrMax= 2.25D-05 EMaxC= 1.00D-01 BMatC= 1.40D-06 BMatP= 1.70D-05
 IDIUse=1 WtCom= 1.00D+00 WtEn= 0.00D+00
 Coeff-Com: -0.273D-02 0.322D+00 0.314D+00 0.366D+00
 Coeff:     -0.273D-02 0.322D+00 0.314D+00 0.366D+00
 Gap=     0.071 Goal=   None    Shift=    0.000
 RMSDP=8.80D-07 MaxDP=8.38D-05 DE=-2.25D-05 OVMax= 4.33D-04

 Cycle  13  Pass 1  IDiag  1:
 RMSU=  1.82D-07    CP:  1.00D+00  1.01D+00  4.81D-01  3.73D-01
 E= -4103.82157693651     Delta-E=       -0.000001518980 Rises=F Damp=F
 DIIS: error= 3.87D-06 at cycle   5 NSaved=   5.
 NSaved= 5 IEnMin= 5 EnMin= -4103.82157693651     IErMin= 5 ErrMin= 3.87D-06
 ErrMax= 3.87D-06 EMaxC= 1.00D-01 BMatC= 2.22D-08 BMatP= 1.40D-06
 IDIUse=1 WtCom= 1.00D+00 WtEn= 0.00D+00
 Coeff-Com: -0.281D-02 0.177D+00 0.174D+00 0.219D+00 0.433D+00
 Coeff:     -0.281D-02 0.177D+00 0.174D+00 0.219D+00 0.433D+00
 Gap=     0.071 Goal=   None    Shift=    0.000
 RMSDP=1.29D-07 MaxDP=1.65D-05 DE=-1.52D-06 OVMax= 3.63D-05

 Cycle  14  Pass 1  IDiag  1:
 RMSU=  5.85D-08    CP:  1.00D+00  1.01D+00  4.80D-01  3.94D-01  6.31D-01
 E= -4103.82157696175     Delta-E=       -0.000000025240 Rises=F Damp=F
 DIIS: error= 3.94D-07 at cycle   6 NSaved=   6.
 NSaved= 6 IEnMin= 6 EnMin= -4103.82157696175     IErMin= 6 ErrMin= 3.94D-07
 ErrMax= 3.94D-07 EMaxC= 1.00D-01 BMatC= 6.18D-10 BMatP= 2.22D-08
 IDIUse=1 WtCom= 1.00D+00 WtEn= 0.00D+00
 Coeff-Com: -0.100D-02 0.523D-01 0.516D-01 0.685D-01 0.193D+00 0.636D+00
 Coeff:     -0.100D-02 0.523D-01 0.516D-01 0.685D-01 0.193D+00 0.636D+00
 Gap=     0.071 Goal=   None    Shift=    0.000
 RMSDP=2.43D-08 MaxDP=3.35D-06 DE=-2.52D-08 OVMax= 5.59D-06

 Cycle  15  Pass 1  IDiag  1:
 RMSU=  1.58D-08    CP:  1.00D+00  1.01D+00  4.80D-01  3.94D-01  6.50D-01
                    CP:  9.07D-01
 E= -4103.82157696216     Delta-E=       -0.000000000407 Rises=F Damp=F
 DIIS: error= 3.47D-07 at cycle   7 NSaved=   7.
 NSaved= 7 IEnMin= 7 EnMin= -4103.82157696216     IErMin= 7 ErrMin= 3.47D-07
 ErrMax= 3.47D-07 EMaxC= 1.00D-01 BMatC= 1.72D-10 BMatP= 6.18D-10
 IDIUse=1 WtCom= 1.00D+00 WtEn= 0.00D+00
 Coeff-Com: -0.368D-03 0.167D-01 0.166D-01 0.231D-01 0.797D-01 0.396D+00
 Coeff-Com:  0.468D+00
 Coeff:     -0.368D-03 0.167D-01 0.166D-01 0.231D-01 0.797D-01 0.396D+00
 Coeff:      0.468D+00
 Gap=     0.071 Goal=   None    Shift=    0.000
 RMSDP=1.29D-08 MaxDP=1.90D-06 DE=-4.07D-10 OVMax= 3.69D-06

 Cycle  16  Pass 1  IDiag  1:
 RMSU=  6.90D-09    CP:  1.00D+00  1.01D+00  4.80D-01  3.94D-01  6.62D-01
                    CP:  9.13D-01  6.59D-01
 E= -4103.82157696230     Delta-E=       -0.000000000146 Rises=F Damp=F
 DIIS: error= 2.26D-07 at cycle   8 NSaved=   8.
 NSaved= 8 IEnMin= 8 EnMin= -4103.82157696230     IErMin= 8 ErrMin= 2.26D-07
 ErrMax= 2.26D-07 EMaxC= 1.00D-01 BMatC= 5.65D-11 BMatP= 1.72D-10
 IDIUse=1 WtCom= 1.00D+00 WtEn= 0.00D+00
 Coeff-Com: -0.514D-04 0.599D-03 0.623D-03 0.177D-02 0.169D-01 0.155D+00
 Coeff-Com:  0.366D+00 0.459D+00
 Coeff:     -0.514D-04 0.599D-03 0.623D-03 0.177D-02 0.169D-01 0.155D+00
 Coeff:      0.366D+00 0.459D+00
 Gap=     0.071 Goal=   None    Shift=    0.000
 RMSDP=5.63D-09 MaxDP=7.06D-07 DE=-1.46D-10 OVMax= 1.56D-06

 SCF Done:  E(RB3LYP) =  -4103.82157696     A.U. after   16 cycles
             Convg  =    0.5625D-08             -V/T =  2.0036
 KE= 4.089206364552D+03 PE=-3.467671992791D+04 EE= 1.393846986838D+04
 Leave Link  502 at Thu Jan  5 21:41:52 2012, MaxMem= 1073741824 cpu:    5730.5
 (Enter /apps/gaussian/g09/g09/l801.exe)
 ExpMin= 7.78D-02 ExpMax= 1.61D+04 ExpMxC= 2.43D+03 IAcc=3 IRadAn=         5 AccDes= 0.00D+00
 HarFok:  IExCor=  205 AccDes= 0.00D+00 IRadAn=         5 IDoV=-2
 ScaDFX=  1.000000  1.000000  1.000000  1.000000
 Largest valence mixing into a core orbital is  1.38D-04
 Largest core mixing into a valence orbital is  4.43D-05
 Range of M.O.s used for correlation:    97  1636
 NBasis=  1636 NAE=   298 NBE=   298 NFC=    96 NFV=     0
 NROrb=   1540 NOA=   202 NOB=   202 NVA=  1338 NVB=  1338

 **** Warning!!: The largest alpha MO coefficient is  0.13839037D+02


 **** Warning!!: The smallest alpha delta epsilon is  0.70823414D-01

 Leave Link  801 at Thu Jan  5 21:41:54 2012, MaxMem= 1073741824 cpu:      15.4
 (Enter /apps/gaussian/g09/g09/l914.exe)
 RHF ground state
 MDV=  1073741824 DFT=T DoStab=F Mixed=T DoRPA=T DoScal=F NonHer=T
 Would need an additional************ words for in-memory AO integral storage.
 Making orbital integer symmetry assigments:
 Orbital symmetries:
       Occupied  (A) (A) (A) (A) (A) (A) (A) (A) (A) (A) (A) (A)
                 (A) (A) (A) (A) (A) (A) (A) (A) (A) (A) (A) (A)
                 (A) (A) (A) (A) (A) (A) (A) (A) (A) (A) (A) (A)
                 (A) (A) (A) (A) (A) (A) (A) (A) (A) (A) (A) (A)
                 (A) (A) (A) (A) (A) (A) (A) (A) (A) (A) (A) (A)
                 (A) (A) (A) (A) (A) (A) (A) (A) (A) (A) (A) (A)
                 (A) (A) (A) (A) (A) (A) (A) (A) (A) (A) (A) (A)
                 (A) (A) (A) (A) (A) (A) (A) (A) (A) (A) (A) (A)
                 (A) (A) (A) (A) (A) (A) (A) (A) (A) (A) (A) (A)
                 (A) (A) (A) (A) (A) (A) (A) (A) (A) (A) (A) (A)
                 (A) (A) (A) (A) (A) (A) (A) (A) (A) (A) (A) (A)
                 (A) (A) (A) (A) (A) (A) (A) (A) (A) (A) (A) (A)
                 (A) (A) (A) (A) (A) (A) (A) (A) (A) (A) (A) (A)
                 (A) (A) (A) (A) (A) (A) (A) (A) (A) (A) (A) (A)
                 (A) (A) (A) (A) (A) (A) (A) (A) (A) (A) (A) (A)
                 (A) (A) (A) (A) (A) (A) (A) (A) (A) (A) (A) (A)
                 (A) (A) (A) (A) (A) (A) (A) (A) (A) (A) (A) (A)
                 (A) (A) (A) (A) (A) (A) (A) (A) (A) (A) (A) (A)
                 (A) (A) (A) (A) (A) (A) (A) (A) (A) (A) (A) (A)
                 (A) (A) (A) (A) (A) (A) (A) (A) (A) (A) (A) (A)
                 (A) (A) (A) (A) (A) (A) (A) (A) (A) (A) (A) (A)
                 (A) (A) (A) (A) (A) (A) (A) (A) (A) (A) (A) (A)
                 (A) (A) (A) (A) (A) (A) (A) (A) (A) (A) (A) (A)
                 (A) (A) (A) (A) (A) (A) (A) (A) (A) (A) (A) (A)
                 (A) (A) (A) (A) (A) (A) (A) (A) (A) (A)
       Virtual   (A) (A) (A) (A) (A) (A) (A) (A) (A) (A) (A) (A)
                 (A) (A) (A) (A) (A) (A) (A) (A) (A) (A) (A) (A)
                 (A) (A) (A) (A) (A) (A) (A) (A) (A) (A) (A) (A)
                 (A) (A) (A) (A) (A) (A) (A) (A) (A) (A) (A) (A)
                 (A) (A) (A) (A) (A) (A) (A) (A) (A) (A) (A) (A)
                 (A) (A) (A) (A) (A) (A) (A) (A) (A) (A) (A) (A)
                 (A) (A) (A) (A) (A) (A) (A) (A) (A) (A) (A) (A)
                 (A) (A) (A) (A) (A) (A) (A) (A) (A) (A) (A) (A)
                 (A) (A) (A) (A) (A) (A) (A) (A) (A) (A) (A) (A)
                 (A) (A) (A) (A) (A) (A) (A) (A) (A) (A) (A) (A)
                 (A) (A) (A) (A) (A) (A) (A) (A) (A) (A) (A) (A)
                 (A) (A) (A) (A) (A) (A) (A) (A) (A) (A) (A) (A)
                 (A) (A) (A) (A) (A) (A) (A) (A) (A) (A) (A) (A)
                 (A) (A) (A) (A) (A) (A) (A) (A) (A) (A) (A) (A)
                 (A) (A) (A) (A) (A) (A) (A) (A) (A) (A) (A) (A)
                 (A) (A) (A) (A) (A) (A) (A) (A) (A) (A) (A) (A)
                 (A) (A) (A) (A) (A) (A) (A) (A) (A) (A) (A) (A)
                 (A) (A) (A) (A) (A) (A) (A) (A) (A) (A) (A) (A)
                 (A) (A) (A) (A) (A) (A) (A) (A) (A) (A) (A) (A)
                 (A) (A) (A) (A) (A) (A) (A) (A) (A) (A) (A) (A)
                 (A) (A) (A) (A) (A) (A) (A) (A) (A) (A) (A) (A)
                 (A) (A) (A) (A) (A) (A) (A) (A) (A) (A) (A) (A)
                 (A) (A) (A) (A) (A) (A) (A) (A) (A) (A) (A) (A)
                 (A) (A) (A) (A) (A) (A) (A) (A) (A) (A) (A) (A)
                 (A) (A) (A) (A) (A) (A) (A) (A) (A) (A) (A) (A)
                 (A) (A) (A) (A) (A) (A) (A) (A) (A) (A) (A) (A)
                 (A) (A) (A) (A) (A) (A) (A) (A) (A) (A) (A) (A)
                 (A) (A) (A) (A) (A) (A) (A) (A) (A) (A) (A) (A)
                 (A) (A) (A) (A) (A) (A) (A) (A) (A) (A) (A) (A)
                 (A) (A) (A) (A) (A) (A) (A) (A) (A) (A) (A) (A)
                 (A) (A) (A) (A) (A) (A) (A) (A) (A) (A) (A) (A)
                 (A) (A) (A) (A) (A) (A) (A) (A) (A) (A) (A) (A)
                 (A) (A) (A) (A) (A) (A) (A) (A) (A) (A) (A) (A)
                 (A) (A) (A) (A) (A) (A) (A) (A) (A) (A) (A) (A)
                 (A) (A) (A) (A) (A) (A) (A) (A) (A) (A) (A) (A)
                 (A) (A) (A) (A) (A) (A) (A) (A) (A) (A) (A) (A)
                 (A) (A) (A) (A) (A) (A) (A) (A) (A) (A) (A) (A)
                 (A) (A) (A) (A) (A) (A) (A) (A) (A) (A) (A) (A)
                 (A) (A) (A) (A) (A) (A) (A) (A) (A) (A) (A) (A)
                 (A) (A) (A) (A) (A) (A) (A) (A) (A) (A) (A) (A)
                 (A) (A) (A) (A) (A) (A) (A) (A) (A) (A) (A) (A)
                 (A) (A) (A) (A) (A) (A) (A) (A) (A) (A) (A) (A)
                 (A) (A) (A) (A) (A) (A) (A) (A) (A) (A) (A) (A)
                 (A) (A) (A) (A) (A) (A) (A) (A) (A) (A) (A) (A)
                 (A) (A) (A) (A) (A) (A) (A) (A) (A) (A) (A) (A)
                 (A) (A) (A) (A) (A) (A) (A) (A) (A) (A) (A) (A)
                 (A) (A) (A) (A) (A) (A) (A) (A) (A) (A) (A) (A)
                 (A) (A) (A) (A) (A) (A) (A) (A) (A) (A) (A) (A)
                 (A) (A) (A) (A) (A) (A) (A) (A) (A) (A) (A) (A)
                 (A) (A) (A) (A) (A) (A) (A) (A) (A) (A) (A) (A)
                 (A) (A) (A) (A) (A) (A) (A) (A) (A) (A) (A) (A)
                 (A) (A) (A) (A) (A) (A) (A) (A) (A) (A) (A) (A)
                 (A) (A) (A) (A) (A) (A) (A) (A) (A) (A) (A) (A)
                 (A) (A) (A) (A) (A) (A) (A) (A) (A) (A) (A) (A)
                 (A) (A) (A) (A) (A) (A) (A) (A) (A) (A) (A) (A)
                 (A) (A) (A) (A) (A) (A) (A) (A) (A) (A) (A) (A)
                 (A) (A) (A) (A) (A) (A) (A) (A) (A) (A) (A) (A)
                 (A) (A) (A) (A) (A) (A) (A) (A) (A) (A) (A) (A)
                 (A) (A) (A) (A) (A) (A) (A) (A) (A) (A) (A) (A)
                 (A) (A) (A) (A) (A) (A) (A) (A) (A) (A) (A) (A)
                 (A) (A) (A) (A) (A) (A) (A) (A) (A) (A) (A) (A)
                 (A) (A) (A) (A) (A) (A) (A) (A) (A) (A) (A) (A)
                 (A) (A) (A) (A) (A) (A) (A) (A) (A) (A) (A) (A)
                 (A) (A) (A) (A) (A) (A) (A) (A) (A) (A) (A) (A)
                 (A) (A) (A) (A) (A) (A) (A) (A) (A) (A) (A) (A)
                 (A) (A) (A) (A) (A) (A) (A) (A) (A) (A) (A) (A)
                 (A) (A) (A) (A) (A) (A) (A) (A) (A) (A) (A) (A)
                 (A) (A) (A) (A) (A) (A) (A) (A) (A) (A) (A) (A)
                 (A) (A) (A) (A) (A) (A) (A) (A) (A) (A) (A) (A)
                 (A) (A) (A) (A) (A) (A) (A) (A) (A) (A) (A) (A)
                 (A) (A) (A) (A) (A) (A) (A) (A) (A) (A) (A) (A)
                 (A) (A) (A) (A) (A) (A) (A) (A) (A) (A) (A) (A)
                 (A) (A) (A) (A) (A) (A) (A) (A) (A) (A) (A) (A)
                 (A) (A) (A) (A) (A) (A) (A) (A) (A) (A) (A) (A)
                 (A) (A) (A) (A) (A) (A) (A) (A) (A) (A) (A) (A)
                 (A) (A) (A) (A) (A) (A) (A) (A) (A) (A) (A) (A)
                 (A) (A) (A) (A) (A) (A) (A) (A) (A) (A) (A) (A)
                 (A) (A) (A) (A) (A) (A) (A) (A) (A) (A) (A) (A)
                 (A) (A) (A) (A) (A) (A) (A) (A) (A) (A) (A) (A)
                 (A) (A) (A) (A) (A) (A) (A) (A) (A) (A) (A) (A)
                 (A) (A) (A) (A) (A) (A) (A) (A) (A) (A) (A) (A)
                 (A) (A) (A) (A) (A) (A) (A) (A) (A) (A) (A) (A)
                 (A) (A) (A) (A) (A) (A) (A) (A) (A) (A) (A) (A)
                 (A) (A) (A) (A) (A) (A) (A) (A) (A) (A) (A) (A)
                 (A) (A) (A) (A) (A) (A) (A) (A) (A) (A) (A) (A)
                 (A) (A) (A) (A) (A) (A) (A) (A) (A) (A) (A) (A)
                 (A) (A) (A) (A) (A) (A) (A) (A) (A) (A) (A) (A)
                 (A) (A) (A) (A) (A) (A) (A) (A) (A) (A) (A) (A)
                 (A) (A) (A) (A) (A) (A) (A) (A) (A) (A) (A) (A)
                 (A) (A) (A) (A) (A) (A) (A) (A) (A) (A) (A) (A)
                 (A) (A) (A) (A) (A) (A) (A) (A) (A) (A) (A) (A)
                 (A) (A) (A) (A) (A) (A) (A) (A) (A) (A) (A) (A)
                 (A) (A) (A) (A) (A) (A) (A) (A) (A) (A) (A) (A)
                 (A) (A) (A) (A) (A) (A) (A) (A) (A) (A) (A) (A)
                 (A) (A) (A) (A) (A) (A) (A) (A) (A) (A) (A) (A)
                 (A) (A) (A) (A) (A) (A) (A) (A) (A) (A) (A) (A)
                 (A) (A) (A) (A) (A) (A) (A) (A) (A) (A) (A) (A)
                 (A) (A) (A) (A) (A) (A) (A) (A) (A) (A) (A) (A)
                 (A) (A) (A) (A) (A) (A) (A) (A) (A) (A) (A) (A)
                 (A) (A) (A) (A) (A) (A) (A) (A) (A) (A) (A) (A)
                 (A) (A) (A) (A) (A) (A) (A) (A) (A) (A) (A) (A)
                 (A) (A) (A) (A) (A) (A) (A) (A) (A) (A) (A) (A)
                 (A) (A) (A) (A) (A) (A) (A) (A) (A) (A) (A) (A)
                 (A) (A) (A) (A) (A) (A) (A) (A) (A) (A) (A) (A)
                 (A) (A) (A) (A) (A) (A) (A) (A) (A) (A) (A) (A)
                 (A) (A) (A) (A) (A) (A) (A) (A) (A) (A) (A) (A)
                 (A) (A) (A) (A) (A) (A) (A) (A) (A) (A) (A) (A)
                 (A) (A) (A) (A) (A) (A) (A) (A) (A) (A) (A) (A)
                 (A) (A) (A) (A) (A) (A) (A) (A) (A) (A) (A) (A)
                 (A) (A) (A) (A) (A) (A) (A) (A) (A) (A) (A) (A)
                 (A) (A) (A) (A) (A) (A) (A) (A) (A) (A) (A) (A)
                 (A) (A) (A) (A) (A) (A)
   100 initial guesses have been made.
 Convergence on wavefunction:    0.001000000000000
 Davidson Disk Diagonalization:  ConvIn= 1.00D-03 SkipCon=T Conv= 1.00D-03.
 Max sub-space:   400 roots to seek:   100 dimension of matrix: 540552
 Iteration     1 Dimension   100 NMult   100
 Cannot handle 2e integral symmetry, ISym2E=1.
 CISAX:  IP=  8 NPass=   5 NMax=    20.
 CISAX will form    20 AO SS matrices at one time.
 NMat=    20 NSing=    20.
 FoFCou: FMM=T IPFlag=           0 FMFlag=      100000 FMFlg1=        2001
         NFxFlg=           0 DoJE=F BraDBF=F KetDBF=F FulRan=T
         Omega=  0.000000  0.000000  1.000000  0.000000  0.000000 ICntrl=       0 IOpCl=  0
         NMat0=   20 NMatS0=   20 NMatT0=    0 NMatD0=   20 NMtDS0=    0 NMtDT0=    0
         I1Cent=           0 NGrid=           0.
 Symmetry not used in FoFCou.
 FMM levels:  10  Number of levels for PrismC:   9
 NMat=    20 NSing=    20.
 NMat=    20 NSing=    20.
 NMat=    20 NSing=    20.
 NMat=    20 NSing=    20.
 Cannot handle 2e integral symmetry, ISym2E=1.
 CISAX:  IP=  8 NPass=   5 NMax=    20.
 CISAX will form    20 AO SS matrices at one time.
 NMat=    20 NSing=    20.
 NMat=    20 NSing=    20.
 NMat=    20 NSing=    20.
 NMat=    20 NSing=    20.
 NMat=    20 NSing=    20.
 New state      2 was old state      4
 New state      3 was old state      2
 New state      4 was old state      3
 New state      5 was old state      6
 New state      6 was old state      7
 New state      7 was old state      5
 New state      9 was old state     14
 New state     10 was old state     15
 New state     11 was old state     18
 New state     12 was old state     19
 New state     13 was old state      9
 New state     14 was old state     12
 New state     15 was old state     13
 New state     17 was old state     11
 New state     18 was old state     10
 New state     19 was old state     17
 No map to state     20
 No map to state     21
 New state     22 was old state     20
 New state     24 was old state     22
 New state     25 was old state     21
 Excitation Energies [eV] at current iteration:
 Root      1 :     1.713877939591731
 Root      2 :     1.759587434462547
 Root      3 :     2.212601708064168
 Root      4 :     2.221524037794479
 Root      5 :     2.801988429899585
 Root      6 :     2.802912052412998
 Root      7 :     3.017077683424164
 Root      8 :     3.064314455462912
 Root      9 :     3.214532554783097
 Root     10 :     3.214888132970263
 Root     11 :     3.253748908458657
 Root     12 :     3.254391013115564
 Root     13 :     3.419605375338185
 Root     14 :     3.468777382480566
 Root     15 :     3.469930230748271
 Root     16 :     3.521205243986889
 Root     17 :     3.559799600566753
 Root     18 :     3.561826168040332
 Root     19 :     3.573649696995036
 Root     20 :     3.606626890229877
 Root     21 :     3.614076680776512
 Root     22 :     3.621088235348345
 Root     23 :     3.736644313606071
 Root     24 :     3.745658239781586
 Root     25 :     3.846389842632744
 Iteration     2 Dimension   150 NMult   150
 Cannot handle 2e integral symmetry, ISym2E=1.
 CISAX:  IP=  8 NPass=   3 NMax=    17.
 CISAX will form    17 AO SS matrices at one time.
 NMat=    17 NSing=    17.
 NMat=    17 NSing=    17.
[...]
 Alpha virt. eigenvalues --    2.38660   2.42213   2.42306   2.42554   2.42645
 Alpha virt. eigenvalues --    2.43641   2.43706   2.43751   2.43784   2.43936
 Alpha virt. eigenvalues --    2.44074   2.44671   2.44749   2.45418   2.45516
 Alpha virt. eigenvalues --    2.46850   2.46903   2.47302   2.47333   2.47849
 Alpha virt. eigenvalues --    2.47963   2.48043   2.48182   2.49315   2.49391
 Alpha virt. eigenvalues --    2.49395   2.49463   2.49632   2.49712   2.49902
 Alpha virt. eigenvalues --    2.49941   2.49999   2.50128   2.51105   2.51117
 Alpha virt. eigenvalues --    2.51124   2.51285   2.51711   2.51787   2.52759
 Alpha virt. eigenvalues --    2.52831   2.52999   2.53096   2.53228   2.53335
 Alpha virt. eigenvalues --    2.53469   2.53547   2.53565   2.53588   2.54136
 Alpha virt. eigenvalues --    2.54197   2.54208   2.54360   2.54392   2.54474
 Alpha virt. eigenvalues --    2.54655   2.54753   2.56686   2.56770   2.58365
 Alpha virt. eigenvalues --    2.58431   2.58845   2.58947   2.59243   2.59336
 Alpha virt. eigenvalues --    2.60388   2.60473   2.60689   2.60771   2.61108
 Alpha virt. eigenvalues --    2.61243   2.61776   2.61857   2.62486   2.62567
 Alpha virt. eigenvalues --    2.63132   2.63205   2.64936   2.65035   2.65646
 Alpha virt. eigenvalues --    2.65736   2.66987   2.67072   2.67257   2.67342
 Alpha virt. eigenvalues --    2.67532   2.67645   2.67951   2.68048   2.68089
 Alpha virt. eigenvalues --    2.68157   2.68297   2.68356   2.68414   2.68490
 Alpha virt. eigenvalues --    2.68823   2.68909   2.69027   2.69119   2.70004
 Alpha virt. eigenvalues --    2.70099   2.73851   2.73944   2.74751   2.74812
 Alpha virt. eigenvalues --    2.74951   2.75120   2.75378   2.75451   2.75494
 Alpha virt. eigenvalues --    2.75533   2.75654   2.75764   2.75915   2.75987
 Alpha virt. eigenvalues --    2.76037   2.76109   2.76187   2.76281   2.77073
 Alpha virt. eigenvalues --    2.77162   2.78397   2.78453   2.78855   2.78964
 Alpha virt. eigenvalues --    2.79015   2.79091   2.80383   2.80472   2.81064
 Alpha virt. eigenvalues --    2.81147   2.81808   2.81902   2.82395   2.82456
 Alpha virt. eigenvalues --    2.82712   2.82765   2.82883   2.82999   2.84473
 Alpha virt. eigenvalues --    2.84551   2.85045   2.85162   2.85188   2.85313
 Alpha virt. eigenvalues --    2.85782   2.85866   2.87233   2.87323   2.87635
 Alpha virt. eigenvalues --    2.87723   2.87767   2.87815   2.87873   2.87928
 Alpha virt. eigenvalues --    2.88254   2.88405   2.90194   2.90306   2.90410
 Alpha virt. eigenvalues --    2.90481   2.90563   2.90619   2.91685   2.91741
 Alpha virt. eigenvalues --    2.91910   2.92018   2.92943   2.93046   3.01871
 Alpha virt. eigenvalues --    3.01953   3.02335   3.02422   3.03026   3.03112
 Alpha virt. eigenvalues --    3.06653   3.06671   3.06811   3.06944   3.07484
 Alpha virt. eigenvalues --    3.07546   3.07925   3.08043   3.08224   3.08278
 Alpha virt. eigenvalues --    3.08928   3.08951   3.09249   3.09386   3.09477
 Alpha virt. eigenvalues --    3.09531   3.09755   3.09854   3.10583   3.10618
 Alpha virt. eigenvalues --    3.10661   3.10759   3.10777   3.10832   3.10864
 Alpha virt. eigenvalues --    3.11033   3.11257   3.11361   3.11647   3.11707
 Alpha virt. eigenvalues --    3.11852   3.12020   3.12406   3.12498   3.13876
 Alpha virt. eigenvalues --    3.13969   3.16977   3.17055   3.18574   3.18618
 Alpha virt. eigenvalues --    3.18629   3.18797   3.18813   3.18841   3.18908
 Alpha virt. eigenvalues --    3.18972   3.20665   3.20771   3.21192   3.21266
 Alpha virt. eigenvalues --    3.22457   3.22532   3.22584   3.22722   3.25506
 Alpha virt. eigenvalues --    3.25590   3.28564   3.28644   3.29433   3.29515
 Alpha virt. eigenvalues --    3.29888   3.29975   3.32784   3.32877   3.33417
 Alpha virt. eigenvalues --    3.33496   3.39685   3.39765   3.44585   3.44671
 Alpha virt. eigenvalues --    3.50414   3.50505   3.54313   3.54400   3.59285
 Alpha virt. eigenvalues --    3.59457   3.59572   3.59624   3.61179   3.61253
 Alpha virt. eigenvalues --    3.61605   3.61618   3.61812   3.61876   3.61933
 Alpha virt. eigenvalues --    3.61938   3.61975   3.62030   3.63407   3.63494
 Alpha virt. eigenvalues --    3.64006   3.64172   3.64250   3.64308   3.64447
 Alpha virt. eigenvalues --    3.64520   3.64522   3.64685   3.65774   3.65780
 Alpha virt. eigenvalues --    3.66059   3.66225   3.70450   3.70490   3.70534
 Alpha virt. eigenvalues --    3.70612   3.71472   3.71543   3.71564   3.71619
 Alpha virt. eigenvalues --    3.71653   3.71676   3.71724   3.71825   3.72029
 Alpha virt. eigenvalues --    3.72203   3.72283   3.72347   3.72375   3.72396
 Alpha virt. eigenvalues --    3.72562   3.72689   3.72720   3.72739   3.72766
 Alpha virt. eigenvalues --    3.72903   3.72955   3.72994   3.73047   3.73166
 Alpha virt. eigenvalues --    3.73762   3.73849   3.73870   3.73942   3.73972
 Alpha virt. eigenvalues --    3.74122   3.74616   3.74678   3.79106   3.79140
 Alpha virt. eigenvalues --    3.79163   3.79287   3.79306   3.79400   3.79497
 Alpha virt. eigenvalues --    3.79672   3.83457   3.83520   3.86625   3.86677
 Alpha virt. eigenvalues --    3.86837   3.86936   3.87237   3.87378   3.95139
 Alpha virt. eigenvalues --    3.95208   3.96647   3.96759   4.07680   4.07765
 Alpha virt. eigenvalues --    4.10754   4.10816   4.10953   4.11065   4.11712
 Alpha virt. eigenvalues --    4.11797   4.12196   4.12280   4.13780   4.13870
 Alpha virt. eigenvalues --    4.14438   4.14520   4.14595   4.14680   4.15038
 Alpha virt. eigenvalues --    4.15123   4.16939   4.16954   4.16967   4.17103
 Alpha virt. eigenvalues --    4.18577   4.18655   4.21558   4.21640   4.22093
 Alpha virt. eigenvalues --    4.22186   4.33652   4.33725   4.33893   4.33999
 Alpha virt. eigenvalues --    4.34778   4.34890   4.36000   4.36096   4.38599
 Alpha virt. eigenvalues --    4.38689   4.38948   4.39028   4.41155   4.41245
 Alpha virt. eigenvalues --    4.44994   4.45078   4.47866   4.47894   4.48008
 Alpha virt. eigenvalues --    4.48115   4.48640   4.48676   4.49423   4.49569
 Alpha virt. eigenvalues --    4.50644   4.50700   4.51033   4.51149   4.57099
 Alpha virt. eigenvalues --    4.57217   4.57340   4.57416   4.58024   4.58090
 Alpha virt. eigenvalues --    4.58875   4.58993   4.60258   4.60411   4.63089
 Alpha virt. eigenvalues --    4.63174   4.70881   4.71047   4.71595   4.71649
 Alpha virt. eigenvalues --    4.77810   4.77894   4.85822   4.85908   4.95968
 Alpha virt. eigenvalues --    4.96052   5.09550   5.09635
          Condensed to atoms (all electrons):
 Mulliken atomic charges:
              1
     1  Si   0.558404
     2  Si   0.566652
     3  C   -0.072703
     4  C    0.111678
     5  C   -0.167624
     6  H    0.063173
     7  C    0.106391
     8  C   -0.082055
     9  H    0.056498
    10  C   -0.063878
    11  H    0.059823
    12  C   -0.062538
    13  H    0.059617
    14  C   -0.082518
    15  H    0.057213
    16  C    0.103752
    17  C   -0.168964
    18  H    0.064106
    19  C    0.113363
    20  C   -0.073559
    21  C    0.110875
    22  C   -0.162984
    23  H    0.063866
    24  C    0.107264
    25  C   -0.086050
    26  H    0.058170
    27  C   -0.064122
    28  H    0.061098
    29  C   -0.061301
    30  H    0.059798
    31  C   -0.086412
    32  H    0.058301
    33  C    0.092093
    34  C   -0.150325
    35  H    0.065682
    36  C    0.099072
    37  C    0.356447
    38  C   -0.566494
    39  C   -0.519565
    40  H    0.127478
    41  H    0.118807
    42  H    0.129719
    43  C   -0.520906
    44  H    0.129127
    45  H    0.119994
    46  H    0.127634
    47  C   -0.187472
    48  C   -0.293529
    49  H    0.101964
    50  H    0.102265
    51  H    0.095603
    52  C   -0.295235
    53  H    0.115965
    54  H    0.101997
    55  H    0.089794
    56  C   -0.295099
    57  H    0.090416
    58  H    0.100843
    59  H    0.114832
    60  C    0.375115
    61  C   -0.584544
    62  C   -0.519558
    63  H    0.123951
    64  H    0.118667
    65  H    0.128623
    66  C   -0.521268
    67  H    0.129912
    68  H    0.119568
    69  H    0.126997
    70  C   -0.185652
    71  C   -0.291802
    72  H    0.115508
    73  H    0.098237
    74  H    0.091658
    75  C   -0.293797
    76  H    0.100957
    77  H    0.101725
    78  H    0.097698
    79  C   -0.297190
    80  H    0.096018
    81  H    0.096719
    82  H    0.115973
    83  Si   0.558562
    84  Si   0.566555
    85  C   -0.072399
    86  C    0.111564
    87  C   -0.167197
    88  H    0.063886
    89  C    0.106046
    90  C   -0.081577
    91  H    0.057774
    92  C   -0.063694
    93  H    0.061594
    94  C   -0.062826
    95  H    0.060081
    96  C   -0.083108
    97  H    0.056882
    98  C    0.104075
    99  C   -0.169265
   100  H    0.063899
   101  C    0.113538
   102  C   -0.073896
   103  C    0.111082
   104  C   -0.163453
   105  H    0.063448
   106  C    0.107410
   107  C   -0.086378
   108  H    0.057111
   109  C   -0.064485
   110  H    0.059634
   111  C   -0.061666
   112  H    0.059651
   113  C   -0.086172
   114  H    0.058682
   115  C    0.091758
   116  C   -0.150090
   117  H    0.065941
   118  C    0.098805
   119  C    0.356238
   120  C   -0.565892
   121  C   -0.519594
   122  H    0.127599
   123  H    0.118986
   124  H    0.130069
   125  C   -0.520923
   126  H    0.129839
   127  H    0.120007
   128  H    0.127406
   129  C   -0.187439
   130  C   -0.293518
   131  H    0.101955
   132  H    0.102550
   133  H    0.095594
   134  C   -0.295295
   135  H    0.115630
   136  H    0.101966
   137  H    0.089667
   138  C   -0.295141
   139  H    0.090257
   140  H    0.101247
   141  H    0.114532
   142  C    0.375440
   143  C   -0.584995
   144  C   -0.519553
   145  H    0.123550
   146  H    0.118594
   147  H    0.128748
   148  C   -0.521271
   149  H    0.129928
   150  H    0.119677
   151  H    0.127495
   152  C   -0.185705
   153  C   -0.291187
   154  H    0.116129
   155  H    0.098981
   156  H    0.091451
   157  C   -0.293532
   158  H    0.101912
   159  H    0.101278
   160  H    0.096569
   161  C   -0.296515
   162  H    0.092149
   163  H    0.096495
   164  H    0.116891
 Sum of Mulliken atomic charges =   0.00000
 Mulliken charges with hydrogens summed into heavy atoms:
              1
     1  Si   0.558404
     2  Si   0.566652
     3  C   -0.072703
     4  C    0.111678
     5  C   -0.104451
     7  C    0.106391
     8  C   -0.025557
    10  C   -0.004055
    12  C   -0.002922
    14  C   -0.025306
    16  C    0.103752
    17  C   -0.104857
    19  C    0.113363
    20  C   -0.073559
    21  C    0.110875
    22  C   -0.099118
    24  C    0.107264
    25  C   -0.027880
    27  C   -0.003024
    29  C   -0.001503
    31  C   -0.028110
    33  C    0.092093
    34  C   -0.084643
    36  C    0.099072
    37  C    0.356447
    38  C   -0.566494
    39  C   -0.143562
    43  C   -0.144150
    47  C   -0.187472
    48  C    0.006304
    52  C    0.012522
    56  C    0.010993
    60  C    0.375115
    61  C   -0.584544
    62  C   -0.148317
    66  C   -0.144791
    70  C   -0.185652
    71  C    0.013601
    75  C    0.006584
    79  C    0.011521
    83  Si   0.558562
    84  Si   0.566555
    85  C   -0.072399
    86  C    0.111564
    87  C   -0.103311
    89  C    0.106046
    90  C   -0.023803
    92  C   -0.002100
    94  C   -0.002746
    96  C   -0.026226
    98  C    0.104075
    99  C   -0.105365
   101  C    0.113538
   102  C   -0.073896
   103  C    0.111082
   104  C   -0.100005
   106  C    0.107410
   107  C   -0.029267
   109  C   -0.004850
   111  C   -0.002015
   113  C   -0.027491
   115  C    0.091758
   116  C   -0.084149
   118  C    0.098805
   119  C    0.356238
   120  C   -0.565892
   121  C   -0.142940
   125  C   -0.143671
   129  C   -0.187439
   130  C    0.006582
   134  C    0.011967
   138  C    0.010895
   142  C    0.375440
   143  C   -0.584995
   144  C   -0.148661
   148  C   -0.144172
   152  C   -0.185705
   153  C    0.015375
   157  C    0.006226
   161  C    0.009021
 Sum of Mulliken charges with hydrogens summed into heavy atoms =   0.00000
 Electronic spatial extent (au):  <R**2>=         158781.6542
 Charge=              0.0000 electrons
 Dipole moment (field-independent basis, Debye):
    X=              1.3251    Y=              0.6536    Z=             -0.2888  Tot=              1.5055
 Quadrupole moment (field-independent basis, Debye-Ang):
   XX=           -465.7961   YY=           -444.5026   ZZ=           -488.3512
   XY=             -7.7910   XZ=             27.8597   YZ=              4.0314
 Traceless Quadrupole moment (field-independent basis, Debye-Ang):
   XX=              0.4206   YY=             21.7141   ZZ=            -22.1346
   XY=             -7.7910   XZ=             27.8597   YZ=              4.0314
 Octapole moment (field-independent basis, Debye-Ang**2):
  XXX=            190.9326  YYY=             29.2770  ZZZ=             -8.4554  XYY=             11.7460
  XXY=             -0.1997  XXZ=            -64.9004  XZZ=              4.6719  YZZ=             16.4232
  YYZ=            -13.2531  XYZ=            -14.3010
 Hexadecapole moment (field-independent basis, Debye-Ang**3):
 XXXX=        -151188.6999 YYYY=         -46650.3617 ZZZZ=         -10802.2459 XXXY=           -819.2857
 XXXZ=           4461.4413 YYYX=             69.0164 YYYZ=            -53.2736 ZZZX=            273.8966
 ZZZY=             49.9076 XXYY=         -32137.9935 XXZZ=         -28046.9883 YYZZ=          -9557.3002
 XXYZ=            709.4628 YYXZ=            311.4315 ZZXY=            103.4833
 N-N= 1.254522211801D+04 E-N=-3.467671984457D+04  KE= 4.089206364552D+03
 Leave Link  601 at Fri Jan  6 06:01:07 2012, MaxMem= 1073741824 cpu:      10.2
 (Enter /apps/gaussian/g09/g09/l9999.exe)
 1\1\GINC-CX1-1-9-2\SP\RTD-B3LYP-FC\6-31G(d,p)\C76H84Si4\JMF02\06-Jan-2
 012\0\\#p scf=verytight b3lyp/6-31g(d,p) td(singlets,nstates=25)\\CSD 
 ENTRY k01094\\0,1\Si,0,7.67676375,4.94253357,2.1246362\Si,0,4.28161931
 ,9.81253748,11.99769136\C,0,5.88830855,5.96626779,6.07011022\C,0,6.090
 46715,5.24232125,7.26812329\C,0,6.62880609,3.9407062,7.27217704\H,0,6.
 87149525,3.54304041,6.44484343\C,0,6.81589231,3.22361801,8.43885663\C,
 0,7.35926412,1.90045493,8.45262392\H,0,7.59858004,1.48604649,7.6323120
 6\C,0,7.54024973,1.2263429,9.61402789\H,0,7.90027364,0.34684983,9.5974
 2299\C,0,7.19697251,1.82693137,10.85694954\H,0,7.33392581,1.34816304,1
 1.66574042\C,0,6.67611362,3.0741238,10.89544724\H,0,6.44428938,3.45591
 568,11.73444157\C,0,6.46769297,3.83280853,9.69764579\C,0,5.95394957,5.
 11585633,9.71254767\H,0,5.73472535,5.51543945,10.54618372\C,0,5.744888
 05,5.8486812,8.53039414\C,0,5.24618382,7.18179101,8.55055133\C,0,5.007
 98494,7.89329127,7.34627824\C,0,4.52458448,9.21206834,7.33206442\H,0,4
 .33632148,9.63799685,8.15950986\C,0,4.31254682,9.91646084,6.15488506\C
 ,0,3.87262532,11.27181772,6.13855037\H,0,3.73088329,11.72706803,6.9599
 9322\C,0,3.65060121,11.92652525,4.96812936\H,0,3.36908454,12.83304113,
 4.97950156\C,0,3.83999479,11.25774357,3.72181514\H,0,3.65971079,11.715
 30814,2.9094394\C,0,4.27263193,9.97908794,3.69052781\H,0,4.39687443,9.
 54989218,2.85173773\C,0,4.55024596,9.25348337,4.89847709\C,0,5.0401307
 6,7.95888586,4.89214092\H,0,5.20269426,7.52953526,4.05971304\C,0,5.305
 35385,7.25979106,6.08357669\C,0,6.3665247,5.44970565,4.81807473\C,0,6.
 83687335,5.1280959,3.74768634\C,0,9.51187655,5.09836176,2.3815887\H,0,
 9.72990297,6.01747311,2.64161138\H,0,9.97884889,4.87519537,1.54800931\
 H,0,9.79559418,4.48169378,3.08844859\C,0,7.2915254,3.27432175,1.393509
 85\H,0,7.53957247,2.57366073,2.03135684\H,0,7.79947538,3.15685183,0.56
 418384\H,0,6.33217668,3.21704703,1.20038905\C,0,7.0302756,6.33469594,1
 .02102575\C,0,7.64491082,6.20556194,-0.37887208\H,0,7.35521246,5.36196
 436,-0.78550582\H,0,8.62235029,6.21528429,-0.30781887\H,0,7.34879661,6
 .95484057,-0.93584956\C,0,5.50430625,6.2565946,0.90480301\H,0,5.104716
 54,6.34195577,1.79535875\H,0,5.25031207,5.39435065,0.51387037\H,0,5.18
 284169,6.98289614,0.33099066\C,0,7.41698613,7.70517882,1.60463832\H,0,
 7.04792623,8.41627832,1.04049978\H,0,8.39418619,7.78434877,1.63324187\
 H,0,7.05622182,7.78707157,2.51226914\C,0,4.98373256,7.86218979,9.78718
 986\C,0,4.74019744,8.54041352,10.76397756\C,0,2.56019481,10.3879449,11
 .59480925\H,0,2.53224991,10.71107022,10.66964218\H,0,2.3086769,11.1141
 043,12.20212241\H,0,1.93364454,9.64148342,11.69987599\C,0,4.29440537,9
 .08479763,13.70564722\H,0,3.71559593,8.29456471,13.72799833\H,0,3.9645
 7006,9.7499146,14.34639997\H,0,5.20951381,8.82620593,13.94410238\C,0,5
 .52525967,11.22465071,11.83927147\C,0,6.91715373,10.75601806,12.271933
 41\H,0,7.18793505,9.98876868,11.72614695\H,0,6.89477462,10.49250497,13
 .2162284\H,0,7.56054392,11.48525197,12.15225066\C,0,5.11022129,12.4009
 4172,12.73138559\H,0,5.05138975,12.10008422,13.66155204\H,0,4.23669607
 ,12.7390198,12.44181536\H,0,5.77668313,13.11601759,12.66037778\C,0,5.5
 9984975,11.71008171,10.37952284\H,0,6.23134275,12.45698023,10.31589737
 \H,0,4.71247854,12.00675451,10.08825219\H,0,5.90357448,10.97556075,9.8
 0711717\Si,0,11.3896,17.9937,2.12464\Si,0,7.99442,22.8637,11.9977\C,0,
 9.60111,19.0174,6.07011\C,0,9.80326,18.2935,7.26812\C,0,10.3416,16.991
 9,7.27218\H,0,10.5843,16.5942,6.44484\C,0,10.5287,16.2748,8.43886\C,0,
 11.0721,14.9516,8.45262\H,0,11.3114,14.5372,7.63231\C,0,11.253,14.2775
 ,9.61403\H,0,11.6131,13.398,9.59742\C,0,10.9098,14.8781,10.8569\H,0,11
 .0467,14.3993,11.6657\C,0,10.3889,16.1253,10.8954\H,0,10.1571,16.5071,
 11.7344\C,0,10.1805,16.884,9.69765\C,0,9.66675,18.167,9.71255\H,0,9.44
 752,18.5666,10.5462\C,0,9.45769,18.8998,8.53039\C,0,8.95898,20.233,8.5
 5055\C,0,8.72078,20.9445,7.34628\C,0,8.23738,22.2632,7.33206\H,0,8.049
 12,22.6892,8.15951\C,0,8.02534,22.9676,6.15489\C,0,7.58542,24.323,6.13
 855\H,0,7.44368,24.7782,6.95999\C,0,7.3634,24.9777,4.96813\H,0,7.08188
 ,25.8842,4.9795\C,0,7.55279,24.3089,3.72182\H,0,7.37251,24.7665,2.9094
 4\C,0,7.98543,23.0303,3.69053\H,0,8.10967,22.6011,2.85174\C,0,8.26304,
 22.3046,4.89848\C,0,8.75293,21.0101,4.89214\H,0,8.91549,20.5807,4.0597
 1\C,0,9.01815,20.311,6.08358\C,0,10.0793,18.5009,4.81807\C,0,10.5497,1
 8.1793,3.74769\C,0,13.2247,18.1495,2.38159\H,0,13.4427,19.0686,2.64161
 \H,0,13.6916,17.9264,1.54801\H,0,13.5084,17.5329,3.08845\C,0,11.0043,1
 6.3255,1.39351\H,0,11.2524,15.6248,2.03136\H,0,11.5123,16.208,0.564184
 \H,0,10.045,16.2682,1.20039\C,0,10.7431,19.3859,1.02103\C,0,11.3577,19
 .2567,-0.378872\H,0,11.068,18.4131,-0.785506\H,0,12.3351,19.2664,-0.30
 7819\H,0,11.0616,20.006,-0.93585\C,0,9.2171,19.3078,0.904803\H,0,8.817
 51,19.3931,1.79536\H,0,8.96311,18.4455,0.51387\H,0,8.89564,20.0341,0.3
 30991\C,0,11.1298,20.7563,1.60464\H,0,10.7607,21.4674,1.0405\H,0,12.10
 7,20.8355,1.63324\H,0,10.769,20.8382,2.51227\C,0,8.69653,20.9134,9.787
 19\C,0,8.45299,21.5916,10.764\C,0,6.27299,23.4391,11.5948\H,0,6.24505,
 23.7622,10.6696\H,0,6.02147,24.1653,12.2021\H,0,5.64644,22.6926,11.699
 9\C,0,8.0072,22.136,13.7056\H,0,7.42839,21.3457,13.728\H,0,7.67737,22.
 8011,14.3464\H,0,8.92231,21.8774,13.9441\C,0,9.23806,24.2758,11.8393\C
 ,0,10.63,23.8072,12.2719\H,0,10.9007,23.0399,11.7261\H,0,10.6076,23.54
 37,13.2162\H,0,11.2733,24.5364,12.1523\C,0,8.82302,25.4521,12.7314\H,0
 ,8.76419,25.1512,13.6616\H,0,7.94949,25.7902,12.4418\H,0,9.48948,26.16
 72,12.6604\C,0,9.31265,24.7612,10.3795\H,0,9.94414,25.5081,10.3159\H,0
 ,8.42528,25.0579,10.0883\H,0,9.61637,24.0267,9.80712\\Version=EM64L-G0
 9RevA.02\State=1-A\HF=-4103.821577\RMSD=5.625e-09\PG=C01 [X(C76H84Si4)
 ]\\@


 IT IS BY LOGIC THAT WE PROVE, BUT BY INTUITION THAT WE DISCOVER.
     -- J.H.POINCARE (1854-1912)
 Job cpu time:  2 days 19 hours 59 minutes 29.6 seconds.
 File lengths (MBytes):  RWF=  13560 Int=      0 D2E=      0 Chk=   2224 Scr=      1
 Normal termination of Gaussian 09 at Fri Jan  6 06:01:35 2012.
