 Entering Gaussian System, Link 0=g03
 Input=k01071_tips_Tv2.com
 Output=k01071_tips_Tv2.log
 Initial command:
 /apps/gaussian/g09/g09/l1.exe /tmp/pbs.509042.cx1b/Gau-18899.inp -scrdir=/tmp/pbs.509042.cx1b/
 Entering Link 1 = /apps/gaussian/g09/g09/l1.exe PID=     18907.
  
 Copyright (c) 1988,1990,1992,1993,1995,1998,2003,2009, Gaussian, Inc.
                  All Rights Reserved.
  
 This is part of the Gaussian(R) 09 program.  It is based on
 the Gaussian(R) 03 system (copyright 2003, Gaussian, Inc.),
 the Gaussian(R) 98 system (copyright 1998, Gaussian, Inc.),
 the Gaussian(R) 94 system (copyright 1995, Gaussian, Inc.),
 the Gaussian 92(TM) system (copyright 1992, Gaussian, Inc.),
 the Gaussian 90(TM) system (copyright 1990, Gaussian, Inc.),
 the Gaussian 88(TM) system (copyright 1988, Gaussian, Inc.),
 the Gaussian 86(TM) system (copyright 1986, Carnegie Mellon
 University), and the Gaussian 82(TM) system (copyright 1983,
 Carnegie Mellon University). Gaussian is a federally registered
 trademark of Gaussian, Inc.
  
 This software contains proprietary and confidential information,
 including trade secrets, belonging to Gaussian, Inc.
  
 This software is provided under written license and may be
 used, copied, transmitted, or stored only in accord with that
 written license.
  
 The following legend is applicable only to US Government
 contracts under FAR:
  
                    RESTRICTED RIGHTS LEGEND
  
 Use, reproduction and disclosure by the US Government is
 subject to restrictions as set forth in subparagraphs (a)
 and (c) of the Commercial Computer Software - Restricted
 Rights clause in FAR 52.227-19.
  
 Gaussian, Inc.
 340 Quinnipiac St., Bldg. 40, Wallingford CT 06492
  
  
 ---------------------------------------------------------------
 Warning -- This program may not be used in any manner that
 competes with the business of Gaussian, Inc. or will provide
 assistance to any competitor of Gaussian, Inc.  The licensee
 of this program is prohibited from giving any competitor of
 Gaussian, Inc. access to this program.  By using this program,
 the user acknowledges that Gaussian, Inc. is engaged in the
 business of creating and licensing software in the field of
 computational chemistry and represents and warrants to the
 licensee that it is not a competitor of Gaussian, Inc. and that
 it will not use this program in any manner prohibited above.
 ---------------------------------------------------------------
  

 Cite this work as:
 Gaussian 09, Revision A.02,
 M. J. Frisch, G. W. Trucks, H. B. Schlegel, G. E. Scuseria, 
 M. A. Robb, J. R. Cheeseman, G. Scalmani, V. Barone, B. Mennucci, 
 G. A. Petersson, H. Nakatsuji, M. Caricato, X. Li, H. P. Hratchian, 
 A. F. Izmaylov, J. Bloino, G. Zheng, J. L. Sonnenberg, M. Hada, 
 M. Ehara, K. Toyota, R. Fukuda, J. Hasegawa, M. Ishida, T. Nakajima, 
 Y. Honda, O. Kitao, H. Nakai, T. Vreven, J. A. Montgomery, Jr., 
 J. E. Peralta, F. Ogliaro, M. Bearpark, J. J. Heyd, E. Brothers, 
 K. N. Kudin, V. N. Staroverov, R. Kobayashi, J. Normand, 
 K. Raghavachari, A. Rendell, J. C. Burant, S. S. Iyengar, J. Tomasi, 
 M. Cossi, N. Rega, J. M. Millam, M. Klene, J. E. Knox, J. B. Cross, 
 V. Bakken, C. Adamo, J. Jaramillo, R. Gomperts, R. E. Stratmann, 
 O. Yazyev, A. J. Austin, R. Cammi, C. Pomelli, J. W. Ochterski, 
 R. L. Martin, K. Morokuma, V. G. Zakrzewski, G. A. Voth, 
 P. Salvador, J. J. Dannenberg, S. Dapprich, A. D. Daniels, 
 O. Farkas, J. B. Foresman, J. V. Ortiz, J. Cioslowski, 
 and D. J. Fox, Gaussian, Inc., Wallingford CT, 2009.
 
 ******************************************
 Gaussian 09:  EM64L-G09RevA.02 11-Jun-2009
                 5-Jan-2012 
 ******************************************
 %chk=k01071_tips_Tv2.chk
 %Mem=8Gb
 %nproc=8
 Will use up to    8 processors via shared memory.
 ---------------------------------------------------------
 #p scf=verytight b3lyp/6-31g(d,p) td(singlets,nstates=25)
 ---------------------------------------------------------
 1/38=1/1;
 2/12=2,17=6,18=5,40=1/2;
 3/5=1,6=6,7=101,11=2,16=1,25=1,30=1,74=-5/1,2,8,3;
 4//1;
 5/5=2,17=3,38=5/2;
 8/6=1,10=2,108=25/1;
 9/41=25,42=1,48=1/14;
 6/7=2,8=2,9=2,10=2/1;
 99/5=1,9=1/99;
 Leave Link    1 at Thu Jan  5 21:14:12 2012, MaxMem= 1073741824 cpu:       0.2
 (Enter /apps/gaussian/g09/g09/l101.exe)
 ----------------
 CSD ENTRY k01071
 ----------------
 Symbolic Z-matrix:
 Charge =  0 Multiplicity = 1
 Si(PDBName=Si,ResName=UNK,ResNum=1)  9.41188   10.36196   8.66644 
 C(PDBName=C1,ResName=UNK,ResNum=1)  7.45586   7.4104    5.97347 
 C(PDBName=C2,ResName=UNK,ResNum=1)  8.22032   6.21507   5.87145 
 C(PDBName=C3,ResName=UNK,ResNum=1)  9.39911   6.03037   6.61804 
 H(PDBName=H3,ResName=UNK,ResNum=1)  9.68599   6.72115   7.20437 
 C(PDBName=C4,ResName=UNK,ResNum=1)  10.15409   4.87258   6.52522 
 C(PDBName=C5,ResName=UNK,ResNum=1)  11.36349   4.69895   7.27124 
 H(PDBName=H5,ResName=UNK,ResNum=1)  11.65798   5.38907   7.85376 
 C(PDBName=C6,ResName=UNK,ResNum=1)  12.09386   3.56168   7.15674 
 H(PDBName=H6,ResName=UNK,ResNum=1)  12.89281   3.46263   7.66055 
 C(PDBName=C7,ResName=UNK,ResNum=1)  11.67288   2.51587   6.28835 
 H(PDBName=H7,ResName=UNK,ResNum=1)  12.18792   1.72016   6.22635 
 C(PDBName=C8,ResName=UNK,ResNum=1)  10.54607   2.64176   5.55232 
 H(PDBName=H8,ResName=UNK,ResNum=1)  10.28816   1.93736   4.96925 
 C(PDBName=C9,ResName=UNK,ResNum=1)  9.73478   3.82152   5.63697 
 C(PDBName=C10,ResName=UNK,ResNum=1)  8.57424   3.98941   4.89823 
 H(PDBName=H10,ResName=UNK,ResNum=1)  8.29366   3.29195   4.31696 
 C(PDBName=C11,ResName=UNK,ResNum=1)  7.79281   5.16314   4.98219 
 C(PDBName=C12,ResName=UNK,ResNum=1)  7.91749   8.43899   6.85229 
 C(PDBName=C13,ResName=UNK,ResNum=1)  8.39889   9.26264   7.5939 
 C(PDBName=C14,ResName=UNK,ResNum=1)  10.45271   11.4444   7.58129 
 H(PDBName=H14A,ResName=UNK,ResNum=1)  11.11233   10.89405   7.10961 
 H(PDBName=H14B,ResName=UNK,ResNum=1)  10.91687   12.10872   8.13235 
 H(PDBName=H14C,ResName=UNK,ResNum=1)  9.88165   11.90064   6.92987 
 C(PDBName=C15,ResName=UNK,ResNum=1)  10.53534   9.26828   9.66183 
 H(PDBName=H15A,ResName=UNK,ResNum=1)  9.99987   8.71999   10.27312 
 H(PDBName=H15B,ResName=UNK,ResNum=1)  11.15721   9.8223    10.17862 
 H(PDBName=H15C,ResName=UNK,ResNum=1)  11.04153   8.68508   9.05907 
 C(PDBName=C16,ResName=UNK,ResNum=1)  8.31856   11.37181   9.77123 
 H(PDBName=H16A,ResName=UNK,ResNum=1)  7.7416    11.94541   9.22433 
 H(PDBName=H16B,ResName=UNK,ResNum=1)  8.8717    11.92874   10.35918 
 H(PDBName=H16C,ResName=UNK,ResNum=1)  7.76267   10.77446   10.31516 
 Si(PDBName=Si,ResName=UNK,ResNum=1)  4.65373   2.38      1.5293 
 C(PDBName=C1,ResName=UNK,ResNum=1)  6.60975   5.33157   4.22226 
 C(PDBName=C2,ResName=UNK,ResNum=1)  5.84529   6.52689   4.32428 
 C(PDBName=C3,ResName=UNK,ResNum=1)  4.6665    6.7116    3.57769 
 H(PDBName=H3,ResName=UNK,ResNum=1)  4.37962   6.02082   2.99136 
 C(PDBName=C4,ResName=UNK,ResNum=1)  3.91152   7.86938   3.67051 
 C(PDBName=C5,ResName=UNK,ResNum=1)  2.70213   8.04302   2.92449 
 H(PDBName=H5,ResName=UNK,ResNum=1)  2.40763   7.35289   2.34197 
 C(PDBName=C6,ResName=UNK,ResNum=1)  1.97176   9.18028   3.03899 
 H(PDBName=H6,ResName=UNK,ResNum=1)  1.17281   9.27933   2.53519 
 C(PDBName=C7,ResName=UNK,ResNum=1)  2.39273   10.22609   3.90738 
 H(PDBName=H7,ResName=UNK,ResNum=1)  1.8777    11.02181   3.96938 
 C(PDBName=C8,ResName=UNK,ResNum=1)  3.51954   10.1002   4.64341 
 H(PDBName=H8,ResName=UNK,ResNum=1)  3.77746   10.80461   5.22648 
 C(PDBName=C9,ResName=UNK,ResNum=1)  4.33084   8.92044   4.55876 
 C(PDBName=C10,ResName=UNK,ResNum=1)  5.49138   8.75255   5.29751 
 H(PDBName=H10,ResName=UNK,ResNum=1)  5.77195   9.45001   5.87877 
 C(PDBName=C11,ResName=UNK,ResNum=1)  6.2728    7.57882   5.21355 
 C(PDBName=C12,ResName=UNK,ResNum=1)  6.14812   4.30298   3.34344 
 C(PDBName=C13,ResName=UNK,ResNum=1)  5.66672   3.47932   2.60183 
 C(PDBName=C14,ResName=UNK,ResNum=1)  3.6129    1.29756   2.61444 
 H(PDBName=H14A,ResName=UNK,ResNum=1)  2.95329   1.84792   3.08612 
 H(PDBName=H14B,ResName=UNK,ResNum=1)  3.14874   0.63324   2.06338 
 H(PDBName=H14C,ResName=UNK,ResNum=1)  4.18397   0.84132   3.26586 
 C(PDBName=C15,ResName=UNK,ResNum=1)  3.53027   3.47369   0.53391 
 H(PDBName=H15A,ResName=UNK,ResNum=1)  4.06574   4.02198  -0.07739 
 H(PDBName=H15B,ResName=UNK,ResNum=1)  2.90841   2.91966   0.01711 
 H(PDBName=H15C,ResName=UNK,ResNum=1)  3.02408   4.05688   1.13667 
 C(PDBName=C16,ResName=UNK,ResNum=1)  5.74706   1.37015   0.4245 
 H(PDBName=H16A,ResName=UNK,ResNum=1)  6.32401   0.79655   0.9714 
 H(PDBName=H16B,ResName=UNK,ResNum=1)  5.19392   0.81322  -0.16344 
 H(PDBName=H16C,ResName=UNK,ResNum=1)  6.30294   1.9675   -0.11943 
 Si(PDBName=Si,ResName=UNK,ResNum=1)  10.2979   20.4692   8.66644 
 C(PDBName=C1,ResName=UNK,ResNum=1)  8.34191   17.5176   5.97347 
 C(PDBName=C2,ResName=UNK,ResNum=1)  9.10637   16.3223   5.87145 
 C(PDBName=C3,ResName=UNK,ResNum=1)  10.2852   16.1376   6.61804 
 H(PDBName=H3,ResName=UNK,ResNum=1)  10.572    16.8284   7.20437 
 C(PDBName=C4,ResName=UNK,ResNum=1)  11.0401   14.9798   6.52522 
 C(PDBName=C5,ResName=UNK,ResNum=1)  12.2495   14.8062   7.27124 
 H(PDBName=H5,ResName=UNK,ResNum=1)  12.544    15.4963   7.85376 
 C(PDBName=C6,ResName=UNK,ResNum=1)  12.9799   13.6689   7.15674 
 H(PDBName=H6,ResName=UNK,ResNum=1)  13.7789   13.5699   7.66055 
 C(PDBName=C7,ResName=UNK,ResNum=1)  12.5589   12.6231   6.28835 
 H(PDBName=H7,ResName=UNK,ResNum=1)  13.074    11.8274   6.22635 
 C(PDBName=C8,ResName=UNK,ResNum=1)  11.4321   12.749    5.55232 
 H(PDBName=H8,ResName=UNK,ResNum=1)  11.1742   12.0446   4.96925 
 C(PDBName=C9,ResName=UNK,ResNum=1)  10.6208   13.9288   5.63697 
 C(PDBName=C10,ResName=UNK,ResNum=1)  9.46028   14.0966   4.89823 
 H(PDBName=H10,ResName=UNK,ResNum=1)  9.17971   13.3992   4.31696 
 C(PDBName=C11,ResName=UNK,ResNum=1)  8.67886   15.2704   4.98219 
 C(PDBName=C12,ResName=UNK,ResNum=1)  8.80354   18.5462   6.85229 
 C(PDBName=C13,ResName=UNK,ResNum=1)  9.28494   19.3699   7.5939 
 C(PDBName=C14,ResName=UNK,ResNum=1)  11.3388   21.5516   7.58129 
 H(PDBName=H14A,ResName=UNK,ResNum=1)  11.9984   21.0013   7.10961 
 H(PDBName=H14B,ResName=UNK,ResNum=1)  11.8029   22.216    8.13235 
 H(PDBName=H14C,ResName=UNK,ResNum=1)  10.7677   22.0079   6.92987 
 C(PDBName=C15,ResName=UNK,ResNum=1)  11.4214   19.3755   9.66183 
 H(PDBName=H15A,ResName=UNK,ResNum=1)  10.8859   18.8272   10.2731 
 H(PDBName=H15B,ResName=UNK,ResNum=1)  12.0433   19.9295   10.1786 
 H(PDBName=H15C,ResName=UNK,ResNum=1)  11.9276   18.7923   9.05907 
 C(PDBName=C16,ResName=UNK,ResNum=1)  9.2046    21.479    9.77123 
 H(PDBName=H16A,ResName=UNK,ResNum=1)  8.62765   22.0527   9.22433 
 H(PDBName=H16B,ResName=UNK,ResNum=1)  9.75774   22.036    10.3592 
 H(PDBName=H16C,ResName=UNK,ResNum=1)  8.64872   20.8817   10.3152 
 Si(PDBName=Si,ResName=UNK,ResNum=1)  5.53978   12.4872   1.5293 
 C(PDBName=C1,ResName=UNK,ResNum=1)  7.4958    15.4388   4.22226 
 C(PDBName=C2,ResName=UNK,ResNum=1)  6.73134   16.6341   4.32428 
 C(PDBName=C3,ResName=UNK,ResNum=1)  5.55255   16.8188   3.57769 
 H(PDBName=H3,ResName=UNK,ResNum=1)  5.26567   16.1281   2.99136 
 C(PDBName=C4,ResName=UNK,ResNum=1)  4.79757   17.9766   3.67051 
 C(PDBName=C5,ResName=UNK,ResNum=1)  3.58817   18.1503   2.92449 
 H(PDBName=H5,ResName=UNK,ResNum=1)  3.29368   17.4601   2.34197 
 C(PDBName=C6,ResName=UNK,ResNum=1)  2.85781   19.2875   3.03899 
 H(PDBName=H6,ResName=UNK,ResNum=1)  2.05885   19.3866   2.53519 
 C(PDBName=C7,ResName=UNK,ResNum=1)  3.27878   20.3333   3.90738 
 H(PDBName=H7,ResName=UNK,ResNum=1)  2.76374   21.129    3.96938 
 C(PDBName=C8,ResName=UNK,ResNum=1)  4.40559   20.2074   4.64341 
 H(PDBName=H8,ResName=UNK,ResNum=1)  4.6635    20.9118   5.22648 
 C(PDBName=C9,ResName=UNK,ResNum=1)  5.21688   19.0277   4.55876 
 C(PDBName=C10,ResName=UNK,ResNum=1)  6.37742   18.8598   5.29751 
 H(PDBName=H10,ResName=UNK,ResNum=1)  6.658     19.5573   5.87877 
 C(PDBName=C11,ResName=UNK,ResNum=1)  7.15885   17.6861   5.21355 
 C(PDBName=C12,ResName=UNK,ResNum=1)  7.03417   14.4102   3.34344 
 C(PDBName=C13,ResName=UNK,ResNum=1)  6.55277   13.5866   2.60183 
 C(PDBName=C14,ResName=UNK,ResNum=1)  4.49895   11.4048   2.61444 
 H(PDBName=H14A,ResName=UNK,ResNum=1)  3.83933   11.9552   3.08612 
 H(PDBName=H14B,ResName=UNK,ResNum=1)  4.03479   10.7405   2.06338 
 H(PDBName=H14C,ResName=UNK,ResNum=1)  5.07001   10.9486   3.26586 
 C(PDBName=C15,ResName=UNK,ResNum=1)  4.41632   13.5809   0.53391 
 H(PDBName=H15A,ResName=UNK,ResNum=1)  4.95179   14.1292  -0.07739 
 H(PDBName=H15B,ResName=UNK,ResNum=1)  3.79445   13.0269   0.01711 
 H(PDBName=H15C,ResName=UNK,ResNum=1)  3.91013   14.1641   1.13667 
 C(PDBName=C16,ResName=UNK,ResNum=1)  6.6331    11.4774   0.4245 
 H(PDBName=H16A,ResName=UNK,ResNum=1)  7.21006   10.9038   0.9714 
 H(PDBName=H16B,ResName=UNK,ResNum=1)  6.07996   10.9205  -0.16344 
 H(PDBName=H16C,ResName=UNK,ResNum=1)  7.18899   12.0747  -0.11943 
 
 NAtoms=    128 NQM=    128 NQMF=      0 NMic=      0 NMicF=      0 NTot=    128.
                    Isotopes and Nuclear Properties:
 (Nuclear quadrupole moments (NQMom) in fm**2, nuclear magnetic moments (NMagM)
  in nuclear magnetons)

  Atom         1           2           3           4           5           6           7           8           9          10
 IAtWgt=          28          12          12          12           1          12          12           1          12           1
 AtmWgt=  27.9769284  12.0000000  12.0000000  12.0000000   1.0078250  12.0000000  12.0000000   1.0078250  12.0000000   1.0078250
 NucSpn=           0           0           0           0           1           0           0           1           0           1
 AtZEff=   0.0000000   0.0000000   0.0000000   0.0000000   0.0000000   0.0000000   0.0000000   0.0000000   0.0000000   0.0000000
 NQMom=    0.0000000   0.0000000   0.0000000   0.0000000   0.0000000   0.0000000   0.0000000   0.0000000   0.0000000   0.0000000
 NMagM=    0.0000000   0.0000000   0.0000000   0.0000000   2.7928460   0.0000000   0.0000000   2.7928460   0.0000000   2.7928460

  Atom        11          12          13          14          15          16          17          18          19          20
 IAtWgt=          12           1          12           1          12          12           1          12          12          12
 AtmWgt=  12.0000000   1.0078250  12.0000000   1.0078250  12.0000000  12.0000000   1.0078250  12.0000000  12.0000000  12.0000000
 NucSpn=           0           1           0           1           0           0           1           0           0           0
 AtZEff=   0.0000000   0.0000000   0.0000000   0.0000000   0.0000000   0.0000000   0.0000000   0.0000000   0.0000000   0.0000000
 NQMom=    0.0000000   0.0000000   0.0000000   0.0000000   0.0000000   0.0000000   0.0000000   0.0000000   0.0000000   0.0000000
 NMagM=    0.0000000   2.7928460   0.0000000   2.7928460   0.0000000   0.0000000   2.7928460   0.0000000   0.0000000   0.0000000

  Atom        21          22          23          24          25          26          27          28          29          30
 IAtWgt=          12           1           1           1          12           1           1           1          12           1
 AtmWgt=  12.0000000   1.0078250   1.0078250   1.0078250  12.0000000   1.0078250   1.0078250   1.0078250  12.0000000   1.0078250
 NucSpn=           0           1           1           1           0           1           1           1           0           1
 AtZEff=   0.0000000   0.0000000   0.0000000   0.0000000   0.0000000   0.0000000   0.0000000   0.0000000   0.0000000   0.0000000
 NQMom=    0.0000000   0.0000000   0.0000000   0.0000000   0.0000000   0.0000000   0.0000000   0.0000000   0.0000000   0.0000000
 NMagM=    0.0000000   2.7928460   2.7928460   2.7928460   0.0000000   2.7928460   2.7928460   2.7928460   0.0000000   2.7928460

  Atom        31          32          33          34          35          36          37          38          39          40
 IAtWgt=           1           1          28          12          12          12           1          12          12           1
 AtmWgt=   1.0078250   1.0078250  27.9769284  12.0000000  12.0000000  12.0000000   1.0078250  12.0000000  12.0000000   1.0078250
 NucSpn=           1           1           0           0           0           0           1           0           0           1
 AtZEff=   0.0000000   0.0000000   0.0000000   0.0000000   0.0000000   0.0000000   0.0000000   0.0000000   0.0000000   0.0000000
 NQMom=    0.0000000   0.0000000   0.0000000   0.0000000   0.0000000   0.0000000   0.0000000   0.0000000   0.0000000   0.0000000
 NMagM=    2.7928460   2.7928460   0.0000000   0.0000000   0.0000000   0.0000000   2.7928460   0.0000000   0.0000000   2.7928460

  Atom        41          42          43          44          45          46          47          48          49          50
 IAtWgt=          12           1          12           1          12           1          12          12           1          12
 AtmWgt=  12.0000000   1.0078250  12.0000000   1.0078250  12.0000000   1.0078250  12.0000000  12.0000000   1.0078250  12.0000000
 NucSpn=           0           1           0           1           0           1           0           0           1           0
 AtZEff=   0.0000000   0.0000000   0.0000000   0.0000000   0.0000000   0.0000000   0.0000000   0.0000000   0.0000000   0.0000000
 NQMom=    0.0000000   0.0000000   0.0000000   0.0000000   0.0000000   0.0000000   0.0000000   0.0000000   0.0000000   0.0000000
 NMagM=    0.0000000   2.7928460   0.0000000   2.7928460   0.0000000   2.7928460   0.0000000   0.0000000   2.7928460   0.0000000

  Atom        51          52          53          54          55          56          57          58          59          60
 IAtWgt=          12          12          12           1           1           1          12           1           1           1
 AtmWgt=  12.0000000  12.0000000  12.0000000   1.0078250   1.0078250   1.0078250  12.0000000   1.0078250   1.0078250   1.0078250
 NucSpn=           0           0           0           1           1           1           0           1           1           1
 AtZEff=   0.0000000   0.0000000   0.0000000   0.0000000   0.0000000   0.0000000   0.0000000   0.0000000   0.0000000   0.0000000
 NQMom=    0.0000000   0.0000000   0.0000000   0.0000000   0.0000000   0.0000000   0.0000000   0.0000000   0.0000000   0.0000000
 NMagM=    0.0000000   0.0000000   0.0000000   2.7928460   2.7928460   2.7928460   0.0000000   2.7928460   2.7928460   2.7928460

  Atom        61          62          63          64          65          66          67          68          69          70
 IAtWgt=          12           1           1           1          28          12          12          12           1          12
 AtmWgt=  12.0000000   1.0078250   1.0078250   1.0078250  27.9769284  12.0000000  12.0000000  12.0000000   1.0078250  12.0000000
 NucSpn=           0           1           1           1           0           0           0           0           1           0
 AtZEff=   0.0000000   0.0000000   0.0000000   0.0000000   0.0000000   0.0000000   0.0000000   0.0000000   0.0000000   0.0000000
 NQMom=    0.0000000   0.0000000   0.0000000   0.0000000   0.0000000   0.0000000   0.0000000   0.0000000   0.0000000   0.0000000
 NMagM=    0.0000000   2.7928460   2.7928460   2.7928460   0.0000000   0.0000000   0.0000000   0.0000000   2.7928460   0.0000000

  Atom        71          72          73          74          75          76          77          78          79          80
 IAtWgt=          12           1          12           1          12           1          12           1          12          12
 AtmWgt=  12.0000000   1.0078250  12.0000000   1.0078250  12.0000000   1.0078250  12.0000000   1.0078250  12.0000000  12.0000000
 NucSpn=           0           1           0           1           0           1           0           1           0           0
 AtZEff=   0.0000000   0.0000000   0.0000000   0.0000000   0.0000000   0.0000000   0.0000000   0.0000000   0.0000000   0.0000000
 NQMom=    0.0000000   0.0000000   0.0000000   0.0000000   0.0000000   0.0000000   0.0000000   0.0000000   0.0000000   0.0000000
 NMagM=    0.0000000   2.7928460   0.0000000   2.7928460   0.0000000   2.7928460   0.0000000   2.7928460   0.0000000   0.0000000

  Atom        81          82          83          84          85          86          87          88          89          90
 IAtWgt=           1          12          12          12          12           1           1           1          12           1
 AtmWgt=   1.0078250  12.0000000  12.0000000  12.0000000  12.0000000   1.0078250   1.0078250   1.0078250  12.0000000   1.0078250
 NucSpn=           1           0           0           0           0           1           1           1           0           1
 AtZEff=   0.0000000   0.0000000   0.0000000   0.0000000   0.0000000   0.0000000   0.0000000   0.0000000   0.0000000   0.0000000
 NQMom=    0.0000000   0.0000000   0.0000000   0.0000000   0.0000000   0.0000000   0.0000000   0.0000000   0.0000000   0.0000000
 NMagM=    2.7928460   0.0000000   0.0000000   0.0000000   0.0000000   2.7928460   2.7928460   2.7928460   0.0000000   2.7928460

  Atom        91          92          93          94          95          96          97          98          99         100
 IAtWgt=           1           1          12           1           1           1          28          12          12          12
 AtmWgt=   1.0078250   1.0078250  12.0000000   1.0078250   1.0078250   1.0078250  27.9769284  12.0000000  12.0000000  12.0000000
 NucSpn=           1           1           0           1           1           1           0           0           0           0
 AtZEff=   0.0000000   0.0000000   0.0000000   0.0000000   0.0000000   0.0000000   0.0000000   0.0000000   0.0000000   0.0000000
 NQMom=    0.0000000   0.0000000   0.0000000   0.0000000   0.0000000   0.0000000   0.0000000   0.0000000   0.0000000   0.0000000
 NMagM=    2.7928460   2.7928460   0.0000000   2.7928460   2.7928460   2.7928460   0.0000000   0.0000000   0.0000000   0.0000000

  Atom       101         102         103         104         105         106         107         108         109         110
 IAtWgt=           1          12          12           1          12           1          12           1          12           1
 AtmWgt=   1.0078250  12.0000000  12.0000000   1.0078250  12.0000000   1.0078250  12.0000000   1.0078250  12.0000000   1.0078250
 NucSpn=           1           0           0           1           0           1           0           1           0           1
 AtZEff=   0.0000000   0.0000000   0.0000000   0.0000000   0.0000000   0.0000000   0.0000000   0.0000000   0.0000000   0.0000000
 NQMom=    0.0000000   0.0000000   0.0000000   0.0000000   0.0000000   0.0000000   0.0000000   0.0000000   0.0000000   0.0000000
 NMagM=    2.7928460   0.0000000   0.0000000   2.7928460   0.0000000   2.7928460   0.0000000   2.7928460   0.0000000   2.7928460

  Atom       111         112         113         114         115         116         117         118         119         120
 IAtWgt=          12          12           1          12          12          12          12           1           1           1
 AtmWgt=  12.0000000  12.0000000   1.0078250  12.0000000  12.0000000  12.0000000  12.0000000   1.0078250   1.0078250   1.0078250
 NucSpn=           0           0           1           0           0           0           0           1           1           1
 AtZEff=   0.0000000   0.0000000   0.0000000   0.0000000   0.0000000   0.0000000   0.0000000   0.0000000   0.0000000   0.0000000
 NQMom=    0.0000000   0.0000000   0.0000000   0.0000000   0.0000000   0.0000000   0.0000000   0.0000000   0.0000000   0.0000000
 NMagM=    0.0000000   0.0000000   2.7928460   0.0000000   0.0000000   0.0000000   0.0000000   2.7928460   2.7928460   2.7928460

  Atom       121         122         123         124         125         126         127         128
 IAtWgt=          12           1           1           1          12           1           1           1
 AtmWgt=  12.0000000   1.0078250   1.0078250   1.0078250  12.0000000   1.0078250   1.0078250   1.0078250
 NucSpn=           0           1           1           1           0           1           1           1
 AtZEff=   0.0000000   0.0000000   0.0000000   0.0000000   0.0000000   0.0000000   0.0000000   0.0000000
 NQMom=    0.0000000   0.0000000   0.0000000   0.0000000   0.0000000   0.0000000   0.0000000   0.0000000
 NMagM=    0.0000000   2.7928460   2.7928460   2.7928460   0.0000000   2.7928460   2.7928460   2.7928460
 Leave Link  101 at Thu Jan  5 21:14:13 2012, MaxMem= 1073741824 cpu:       0.6
 (Enter /apps/gaussian/g09/g09/l202.exe)
 Stoichiometry    C64H60Si4
 Framework group  C1[X(C64H60Si4)]
 Deg. of freedom   378
 Full point group                 C1      NOp   1
 Largest Abelian subgroup         C1      NOp   1
 Largest concise Abelian subgroup C1      NOp   1
                         Standard orientation:                         
 ---------------------------------------------------------------------
 Center     Atomic      Atomic             Coordinates (Angstroms)
 Number     Number       Type             X           Y           Z
 ---------------------------------------------------------------------
      1         14           0        0.203062    3.817433    1.731523
      2          6           0        3.777874    1.275363    0.990966
      3          6           0        4.879159    2.050041    0.531988
      4          6           0        4.797878    3.450955    0.423018
      5          1           0        3.988061    3.885580    0.665019
      6          6           0        5.861903    4.216252   -0.025582
      7          6           0        5.766447    5.638803   -0.154324
      8          1           0        4.957078    6.077321    0.080085
      9          6           0        6.816927    6.368051   -0.606667
     10          1           0        6.736647    7.311188   -0.684129
     11          6           0        8.038101    5.731837   -0.965834
     12          1           0        8.769499    6.255830   -1.270400
     13          6           0        8.169258    4.389463   -0.875798
     14          1           0        8.988578    3.982207   -1.131785
     15          6           0        7.091479    3.570759   -0.401130
     16          6           0        7.185797    2.192066   -0.295801
     17          1           0        8.000565    1.766662   -0.537128
     18          6           0        6.110678    1.397665    0.160665
     19          6           0        2.567167    1.953044    1.335004
     20          6           0        1.578550    2.605880    1.572849
     21          6           0       -0.784759    3.792995    0.164310
     22          1           0       -0.238606    4.143785   -0.569944
     23          1           0       -1.582490    4.351803    0.272871
     24          1           0       -1.053956    2.873762   -0.038578
     25          6           0        0.974190    5.496652    1.917769
     26          1           0        1.464790    5.538553    2.765464
     27          1           0        0.272590    6.181088    1.911496
     28          1           0        1.592456    5.656333    1.174857
     29          6           0       -0.853737    3.405818    3.197636
     30          1           0       -1.255235    2.520254    3.072830
     31          1           0       -1.562796    4.077132    3.289170
     32          1           0       -0.301161    3.401784    4.007783
     33         14           0        9.785497   -2.553325   -0.477756
     34          6           0        6.210684   -0.011256    0.262801
     35          6           0        5.109399   -0.785933    0.721779
     36          6           0        5.190681   -2.186848    0.830749
     37          1           0        6.000497   -2.621472    0.588748
     38          6           0        4.126656   -2.952144    1.279349
     39          6           0        4.222112   -4.374696    1.408091
     40          1           0        5.031481   -4.813214    1.173682
     41          6           0        3.171631   -5.103943    1.860434
     42          1           0        3.251912   -6.047080    1.937896
     43          6           0        1.950457   -4.467730    2.219601
     44          1           0        1.219059   -4.991722    2.524167
     45          6           0        1.819301   -3.125355    2.129565
     46          1           0        0.999980   -2.718099    2.385552
     47          6           0        2.897080   -2.306652    1.654897
     48          6           0        2.802762   -0.927958    1.549568
     49          1           0        1.987993   -0.502555    1.790895
     50          6           0        3.877880   -0.133557    1.093102
     51          6           0        7.421391   -0.688936   -0.081237
     52          6           0        8.410009   -1.341772   -0.319082
     53          6           0       10.773317   -2.528887    1.089457
     54          1           0       10.227164   -2.879677    1.823711
     55          1           0       11.571049   -3.087696    0.980896
     56          1           0       11.042514   -1.609655    1.292345
     57          6           0        9.014368   -4.232545   -0.664002
     58          1           0        8.523769   -4.274445   -1.511696
     59          1           0        9.715968   -4.916980   -0.657729
     60          1           0        8.396102   -4.392226    0.078910
     61          6           0       10.842295   -2.141711   -1.943869
     62          1           0       11.243794   -1.256147   -1.819063
     63          1           0       11.551355   -2.813024   -2.035403
     64          1           0       10.289719   -2.137676   -2.754016
     65         14           0       -9.785500    2.553303    0.477775
     66          6           0       -6.210658    0.011263   -0.262805
     67          6           0       -5.109396    0.785932   -0.721783
     68          6           0       -5.190689    2.186883   -0.830774
     69          1           0       -6.000514    2.621440   -0.588731
     70          6           0       -4.126639    2.952118   -1.279332
     71          6           0       -4.222128    4.374664   -1.408075
     72          1           0       -5.031473    4.813196   -1.173665
     73          6           0       -3.171621    5.103945   -1.860434
     74          1           0       -3.251957    6.047114   -1.937927
     75          6           0       -1.950451    4.467711   -2.219587
     76          1           0       -1.219075    4.991747   -2.524195
     77          6           0       -1.819308    3.125338   -2.129561
     78          1           0       -0.999991    2.718094   -2.385555
     79          6           0       -2.897127    2.306624   -1.654886
     80          6           0       -2.802719    0.927968   -1.549561
     81          1           0       -1.988014    0.502557   -1.790898
     82          6           0       -3.877906    0.133555   -1.093102
     83          6           0       -7.421375    0.688941    0.081230
     84          6           0       -8.410038    1.341771    0.319077
     85          6           0      -10.773286    2.528924   -1.089483
     86          1           0      -10.227187    2.879694   -1.823731
     87          1           0      -11.571091    3.087670   -0.980890
     88          1           0      -11.042545    1.609654   -1.292353
     89          6           0       -9.014361    4.232558    0.663997
     90          1           0       -8.523746    4.274423    1.511693
     91          1           0       -9.715939    4.917012    0.657687
     92          1           0       -8.396094    4.392247   -0.078919
     93          6           0      -10.842252    2.141715    1.943870
     94          1           0      -11.243848    1.256139    1.819057
     95          1           0      -11.551387    2.813033    2.035420
     96          1           0      -10.289730    2.137699    2.754041
     97         14           0       -0.203032   -3.817419   -1.731521
     98          6           0       -3.777876   -1.275361   -0.990967
     99          6           0       -4.879138   -2.050030   -0.531989
    100          6           0       -4.797850   -3.450950   -0.423022
    101          1           0       -3.988113   -3.885590   -0.665023
    102          6           0       -5.861891   -4.216247    0.025584
    103          6           0       -5.766499   -5.638813    0.154320
    104          1           0       -4.957057   -6.077318   -0.080089
    105          6           0       -6.816913   -6.368043    0.606662
    106          1           0       -6.736680   -7.311194    0.684131
    107          6           0       -8.038079   -5.731833    0.965833
    108          1           0       -8.769462   -6.255822    1.270405
    109          6           0       -8.169223   -4.389452    0.875801
    110          1           0       -8.988542   -3.982200    1.131790
    111          6           0       -7.091501   -3.570766    0.401125
    112          6           0       -7.185815   -2.192068    0.295804
    113          1           0       -8.000617   -1.766675    0.537119
    114          6           0       -6.110727   -1.397667   -0.160669
    115          6           0       -2.567159   -1.953040   -1.335002
    116          6           0       -1.578593   -2.605889   -1.572856
    117          6           0        0.784748   -3.792991   -0.164313
    118          1           0        0.238554   -4.143796    0.569940
    119          1           0        1.582462   -4.351804   -0.272877
    120          1           0        1.053913   -2.873772    0.038574
    121          6           0       -0.974175   -5.496646   -1.917771
    122          1           0       -1.464782   -5.538547   -2.765467
    123          1           0       -0.272596   -6.181089   -1.911497
    124          1           0       -1.592444   -5.656323   -1.174857
    125          6           0        0.853719   -3.405823   -3.197638
    126          1           0        1.255216   -2.520255   -3.072834
    127          1           0        1.562752   -4.077144   -3.289173
    128          1           0        0.301190   -3.401775   -4.007784
 ---------------------------------------------------------------------
 Rotational constants (GHZ):      0.0394057      0.0142464      0.0112146
 Leave Link  202 at Thu Jan  5 21:14:13 2012, MaxMem= 1073741824 cpu:       0.1
 (Enter /apps/gaussian/g09/g09/l301.exe)
 Standard basis: 6-31G(d,p) (6D, 7F)
 Ernie: Thresh=  0.10000D-02 Tol=  0.10000D-05 Strict=F.
 There are  1336 symmetry adapted basis functions of A   symmetry.
 Integral buffers will be    131072 words long.
 Raffenetti 2 integral format.
 Two-electron integral symmetry is turned on.
  1336 basis functions,  2420 primitive gaussians,  1336 cartesian basis functions
   250 alpha electrons      250 beta electrons
       nuclear repulsion energy     10091.4633936471 Hartrees.
 IExCor=  402 DFT=T Ex+Corr=B3LYP ExCW=0 ScaHFX=  0.200000
 ScaDFX=  0.800000  0.720000  1.000000  0.810000 ScalE2=  1.000000  1.000000
 IRadAn=      0 IRanWt=     -1 IRanGd=            0 ICorTp=0
 NAtoms=  128 NActive=  128 NUniq=  128 SFac= 7.50D-01 NAtFMM=   80 NAOKFM=T Big=T
 Leave Link  301 at Thu Jan  5 21:14:13 2012, MaxMem= 1073741824 cpu:       0.3
 (Enter /apps/gaussian/g09/g09/l302.exe)
 NPDir=0 NMtPBC=     1 NCelOv=     1 NCel=       1 NClECP=     1 NCelD=      1
         NCelK=      1 NCelE2=     1 NClLst=     1 CellRange=     0.0.
 One-electron integrals computed using PRISM.
 NBasis=  1336 RedAO= T  NBF=  1336
 NBsUse=  1336 1.00D-06 NBFU=  1336
 Precomputing XC quadrature grid using
 IXCGrd= 2 IRadAn=           0 IRanWt=          -1 IRanGd=           0 AccXCQ= 1.00D-10.
 NRdTot=    8406 NPtTot=     1076528 NUsed=     1137047 NTot=     1137079
 NSgBfM=   995   995   995   995   995 NAtAll=   128   118.
 Leave Link  302 at Thu Jan  5 21:14:21 2012, MaxMem= 1073741824 cpu:      63.2
 (Enter /apps/gaussian/g09/g09/l308.exe)
 Leave Link  308 at Thu Jan  5 21:14:21 2012, MaxMem= 1073741824 cpu:       3.8
 (Enter /apps/gaussian/g09/g09/l303.exe)
 DipDrv:  MaxL=1.
 Leave Link  303 at Thu Jan  5 21:14:21 2012, MaxMem= 1073741824 cpu:       2.6
 (Enter /apps/gaussian/g09/g09/l401.exe)
 Harris functional with IExCor=  402 diagonalized for initial guess.
 ExpMin= 7.78D-02 ExpMax= 1.61D+04 ExpMxC= 2.43D+03 IAcc=2 IRadAn=         0 AccDes= 0.00D+00
 HarFok:  IExCor=  402 AccDes= 0.00D+00 IRadAn=         0 IDoV= 1
 ScaDFX=  1.000000  1.000000  1.000000  1.000000
 FoFCou: FMM=F IPFlag=           0 FMFlag=      100000 FMFlg1=        2001
         NFxFlg=           0 DoJE=T BraDBF=F KetDBF=T FulRan=T
         Omega=  0.000000  0.000000  1.000000  0.000000  0.000000 ICntrl=     500 IOpCl=  0
         NMat0=    1 NMatS0=    1 NMatT0=    0 NMatD0=    1 NMtDS0=    0 NMtDT0=    0
         I1Cent=           4 NGrid=           0.
 Petite list used in FoFCou.
 Harris En= -3633.88279029689    
 Initial guess orbital symmetries:
       Occupied  (A) (A) (A) (A) (A) (A) (A) (A) (A) (A) (A) (A)
                 (A) (A) (A) (A) (A) (A) (A) (A) (A) (A) (A) (A)
                 (A) (A) (A) (A) (A) (A) (A) (A) (A) (A) (A) (A)
                 (A) (A) (A) (A) (A) (A) (A) (A) (A) (A) (A) (A)
                 (A) (A) (A) (A) (A) (A) (A) (A) (A) (A) (A) (A)
                 (A) (A) (A) (A) (A) (A) (A) (A) (A) (A) (A) (A)
                 (A) (A) (A) (A) (A) (A) (A) (A) (A) (A) (A) (A)
                 (A) (A) (A) (A) (A) (A) (A) (A) (A) (A) (A) (A)
                 (A) (A) (A) (A) (A) (A) (A) (A) (A) (A) (A) (A)
                 (A) (A) (A) (A) (A) (A) (A) (A) (A) (A) (A) (A)
                 (A) (A) (A) (A) (A) (A) (A) (A) (A) (A) (A) (A)
                 (A) (A) (A) (A) (A) (A) (A) (A) (A) (A) (A) (A)
                 (A) (A) (A) (A) (A) (A) (A) (A) (A) (A) (A) (A)
                 (A) (A) (A) (A) (A) (A) (A) (A) (A) (A) (A) (A)
                 (A) (A) (A) (A) (A) (A) (A) (A) (A) (A) (A) (A)
                 (A) (A) (A) (A) (A) (A) (A) (A) (A) (A) (A) (A)
                 (A) (A) (A) (A) (A) (A) (A) (A) (A) (A) (A) (A)
                 (A) (A) (A) (A) (A) (A) (A) (A) (A) (A) (A) (A)
                 (A) (A) (A) (A) (A) (A) (A) (A) (A) (A) (A) (A)
                 (A) (A) (A) (A) (A) (A) (A) (A) (A) (A) (A) (A)
                 (A) (A) (A) (A) (A) (A) (A) (A) (A) (A)
       Virtual   (A) (A) (A) (A) (A) (A) (A) (A) (A) (A) (A) (A)
                 (A) (A) (A) (A) (A) (A) (A) (A) (A) (A) (A) (A)
                 (A) (A) (A) (A) (A) (A) (A) (A) (A) (A) (A) (A)
                 (A) (A) (A) (A) (A) (A) (A) (A) (A) (A) (A) (A)
                 (A) (A) (A) (A) (A) (A) (A) (A) (A) (A) (A) (A)
                 (A) (A) (A) (A) (A) (A) (A) (A) (A) (A) (A) (A)
                 (A) (A) (A) (A) (A) (A) (A) (A) (A) (A) (A) (A)
                 (A) (A) (A) (A) (A) (A) (A) (A) (A) (A) (A) (A)
                 (A) (A) (A) (A) (A) (A) (A) (A) (A) (A) (A) (A)
                 (A) (A) (A) (A) (A) (A) (A) (A) (A) (A) (A) (A)
                 (A) (A) (A) (A) (A) (A) (A) (A) (A) (A) (A) (A)
                 (A) (A) (A) (A) (A) (A) (A) (A) (A) (A) (A) (A)
                 (A) (A) (A) (A) (A) (A) (A) (A) (A) (A) (A) (A)
                 (A) (A) (A) (A) (A) (A) (A) (A) (A) (A) (A) (A)
                 (A) (A) (A) (A) (A) (A) (A) (A) (A) (A) (A) (A)
                 (A) (A) (A) (A) (A) (A) (A) (A) (A) (A) (A) (A)
                 (A) (A) (A) (A) (A) (A) (A) (A) (A) (A) (A) (A)
                 (A) (A) (A) (A) (A) (A) (A) (A) (A) (A) (A) (A)
                 (A) (A) (A) (A) (A) (A) (A) (A) (A) (A) (A) (A)
                 (A) (A) (A) (A) (A) (A) (A) (A) (A) (A) (A) (A)
                 (A) (A) (A) (A) (A) (A) (A) (A) (A) (A) (A) (A)
                 (A) (A) (A) (A) (A) (A) (A) (A) (A) (A) (A) (A)
                 (A) (A) (A) (A) (A) (A) (A) (A) (A) (A) (A) (A)
                 (A) (A) (A) (A) (A) (A) (A) (A) (A) (A) (A) (A)
                 (A) (A) (A) (A) (A) (A) (A) (A) (A) (A) (A) (A)
                 (A) (A) (A) (A) (A) (A) (A) (A) (A) (A) (A) (A)
                 (A) (A) (A) (A) (A) (A) (A) (A) (A) (A) (A) (A)
                 (A) (A) (A) (A) (A) (A) (A) (A) (A) (A) (A) (A)
                 (A) (A) (A) (A) (A) (A) (A) (A) (A) (A) (A) (A)
                 (A) (A) (A) (A) (A) (A) (A) (A) (A) (A) (A) (A)
                 (A) (A) (A) (A) (A) (A) (A) (A) (A) (A) (A) (A)
                 (A) (A) (A) (A) (A) (A) (A) (A) (A) (A) (A) (A)
                 (A) (A) (A) (A) (A) (A) (A) (A) (A) (A) (A) (A)
                 (A) (A) (A) (A) (A) (A) (A) (A) (A) (A) (A) (A)
                 (A) (A) (A) (A) (A) (A) (A) (A) (A) (A) (A) (A)
                 (A) (A) (A) (A) (A) (A) (A) (A) (A) (A) (A) (A)
                 (A) (A) (A) (A) (A) (A) (A) (A) (A) (A) (A) (A)
                 (A) (A) (A) (A) (A) (A) (A) (A) (A) (A) (A) (A)
                 (A) (A) (A) (A) (A) (A) (A) (A) (A) (A) (A) (A)
                 (A) (A) (A) (A) (A) (A) (A) (A) (A) (A) (A) (A)
                 (A) (A) (A) (A) (A) (A) (A) (A) (A) (A) (A) (A)
                 (A) (A) (A) (A) (A) (A) (A) (A) (A) (A) (A) (A)
                 (A) (A) (A) (A) (A) (A) (A) (A) (A) (A) (A) (A)
                 (A) (A) (A) (A) (A) (A) (A) (A) (A) (A) (A) (A)
                 (A) (A) (A) (A) (A) (A) (A) (A) (A) (A) (A) (A)
                 (A) (A) (A) (A) (A) (A) (A) (A) (A) (A) (A) (A)
                 (A) (A) (A) (A) (A) (A) (A) (A) (A) (A) (A) (A)
                 (A) (A) (A) (A) (A) (A) (A) (A) (A) (A) (A) (A)
                 (A) (A) (A) (A) (A) (A) (A) (A) (A) (A) (A) (A)
                 (A) (A) (A) (A) (A) (A) (A) (A) (A) (A) (A) (A)
                 (A) (A) (A) (A) (A) (A) (A) (A) (A) (A) (A) (A)
                 (A) (A) (A) (A) (A) (A) (A) (A) (A) (A) (A) (A)
                 (A) (A) (A) (A) (A) (A) (A) (A) (A) (A) (A) (A)
                 (A) (A) (A) (A) (A) (A) (A) (A) (A) (A) (A) (A)
                 (A) (A) (A) (A) (A) (A) (A) (A) (A) (A) (A) (A)
                 (A) (A) (A) (A) (A) (A) (A) (A) (A) (A) (A) (A)
                 (A) (A) (A) (A) (A) (A) (A) (A) (A) (A) (A) (A)
                 (A) (A) (A) (A) (A) (A) (A) (A) (A) (A) (A) (A)
                 (A) (A) (A) (A) (A) (A) (A) (A) (A) (A) (A) (A)
                 (A) (A) (A) (A) (A) (A) (A) (A) (A) (A) (A) (A)
                 (A) (A) (A) (A) (A) (A) (A) (A) (A) (A) (A) (A)
                 (A) (A) (A) (A) (A) (A) (A) (A) (A) (A) (A) (A)
                 (A) (A) (A) (A) (A) (A) (A) (A) (A) (A) (A) (A)
                 (A) (A) (A) (A) (A) (A) (A) (A) (A) (A) (A) (A)
                 (A) (A) (A) (A) (A) (A) (A) (A) (A) (A) (A) (A)
                 (A) (A) (A) (A) (A) (A) (A) (A) (A) (A) (A) (A)
                 (A) (A) (A) (A) (A) (A) (A) (A) (A) (A) (A) (A)
                 (A) (A) (A) (A) (A) (A) (A) (A) (A) (A) (A) (A)
                 (A) (A) (A) (A) (A) (A) (A) (A) (A) (A) (A) (A)
                 (A) (A) (A) (A) (A) (A) (A) (A) (A) (A) (A) (A)
                 (A) (A) (A) (A) (A) (A) (A) (A) (A) (A) (A) (A)
                 (A) (A) (A) (A) (A) (A) (A) (A) (A) (A) (A) (A)
                 (A) (A) (A) (A) (A) (A) (A) (A) (A) (A) (A) (A)
                 (A) (A) (A) (A) (A) (A) (A) (A) (A) (A) (A) (A)
                 (A) (A) (A) (A) (A) (A) (A) (A) (A) (A) (A) (A)
                 (A) (A) (A) (A) (A) (A) (A) (A) (A) (A) (A) (A)
                 (A) (A) (A) (A) (A) (A) (A) (A) (A) (A) (A) (A)
                 (A) (A) (A) (A) (A) (A) (A) (A) (A) (A) (A) (A)
                 (A) (A) (A) (A) (A) (A) (A) (A) (A) (A) (A) (A)
                 (A) (A) (A) (A) (A) (A) (A) (A) (A) (A) (A) (A)
                 (A) (A) (A) (A) (A) (A) (A) (A) (A) (A) (A) (A)
                 (A) (A) (A) (A) (A) (A) (A) (A) (A) (A) (A) (A)
                 (A) (A) (A) (A) (A) (A) (A) (A) (A) (A) (A) (A)
                 (A) (A) (A) (A) (A) (A) (A) (A) (A) (A) (A) (A)
                 (A) (A) (A) (A) (A) (A) (A) (A) (A) (A) (A) (A)
                 (A) (A) (A) (A) (A) (A) (A) (A) (A) (A) (A) (A)
                 (A) (A) (A) (A) (A) (A) (A) (A) (A) (A) (A) (A)
                 (A) (A) (A) (A) (A) (A) (A) (A) (A) (A) (A) (A)
                 (A) (A) (A) (A) (A) (A) (A) (A) (A) (A) (A) (A)
                 (A) (A) (A) (A) (A) (A) (A) (A) (A) (A) (A) (A)
                 (A) (A) (A) (A) (A) (A)
 The electronic state of the initial guess is 1-A.
 Leave Link  401 at Thu Jan  5 21:14:37 2012, MaxMem= 1073741824 cpu:     122.4
 (Enter /apps/gaussian/g09/g09/l502.exe)
 Closed shell SCF:
 Requested convergence on RMS density matrix=1.00D-08 within 128 cycles.
 Requested convergence on MAX density matrix=1.00D-06.
 Requested convergence on             energy=1.00D-06.
 No special actions if energy rises.
 Using DIIS extrapolation, IDIIS=  1040.
 Integral symmetry usage will be decided dynamically.
      1135882 words used for storage of precomputed grid.
 IEnd=     6529468 IEndB=     6529468 NGot=  1073741824 MDV=  1069015229
 LenX=  1069015229 LenY=  1067228997
 Fock matrices will be formed incrementally for  20 cycles.
 Integral accuracy reduced to 1.0D-05 until final iterations.

 Cycle   1  Pass 0  IDiag  1:
 FoFCou: FMM=T IPFlag=           0 FMFlag=      100000 FMFlg1=        2001
         NFxFlg=           0 DoJE=F BraDBF=F KetDBF=F FulRan=T
         Omega=  0.000000  0.000000  1.000000  0.000000  0.000000 ICntrl=       0 IOpCl=  0
         NMat0=    1 NMatS0=    1 NMatT0=    0 NMatD0=    1 NMtDS0=    0 NMtDT0=    0
         I1Cent=           0 NGrid=           0.
 Symmetry not used in FoFCou.
 FMM levels:  10  Number of levels for PrismC:   9
 E= -3629.23936328926    
 DIIS: error= 4.62D-02 at cycle   1 NSaved=   1.
 NSaved= 1 IEnMin= 1 EnMin= -3629.23936328926     IErMin= 1 ErrMin= 4.62D-02
 ErrMax= 4.62D-02 EMaxC= 1.00D-01 BMatC= 2.93D+00 BMatP= 2.93D+00
 IDIUse=3 WtCom= 5.38D-01 WtEn= 4.62D-01
 Coeff-Com:  0.100D+01
 Coeff-En:   0.100D+01
 Coeff:      0.100D+01
 Gap=     0.079 Goal=   None    Shift=    0.000
 GapD=    0.079 DampG=0.500 DampE=0.500 DampFc=0.2500 IDamp=-1.
 Damping current iteration by 2.50D-01
 RMSDP=3.11D-03 MaxDP=2.18D-01              OVMax= 2.99D-01

 Cycle   2  Pass 0  IDiag  1:
 RMSU=  5.15D-04    CP:  9.72D-01
 E= -3630.32571936926     Delta-E=       -1.086356079999 Rises=F Damp=T
 DIIS: error= 2.17D-02 at cycle   2 NSaved=   2.
 NSaved= 2 IEnMin= 2 EnMin= -3630.32571936926     IErMin= 2 ErrMin= 2.17D-02
 ErrMax= 2.17D-02 EMaxC= 1.00D-01 BMatC= 7.93D-01 BMatP= 2.93D+00
 IDIUse=3 WtCom= 7.83D-01 WtEn= 2.17D-01
 Coeff-Com: -0.919D+00 0.192D+01
 Coeff-En:   0.000D+00 0.100D+01
 Coeff:     -0.720D+00 0.172D+01
 Gap=     0.111 Goal=   None    Shift=    0.000
 RMSDP=1.53D-03 MaxDP=1.15D-01 DE=-1.09D+00 OVMax= 2.63D-01

 Cycle   3  Pass 0  IDiag  1:
 RMSU=  7.29D-04    CP:  9.07D-01  2.29D+00
 E= -3631.83432866075     Delta-E=       -1.508609291497 Rises=F Damp=F
 DIIS: error= 1.84D-02 at cycle   3 NSaved=   3.
 NSaved= 3 IEnMin= 3 EnMin= -3631.83432866075     IErMin= 3 ErrMin= 1.84D-02
 ErrMax= 1.84D-02 EMaxC= 1.00D-01 BMatC= 3.61D-01 BMatP= 7.93D-01
 IDIUse=3 WtCom= 8.16D-01 WtEn= 1.84D-01
 Coeff-Com: -0.565D+00 0.118D+01 0.382D+00
 Coeff-En:   0.000D+00 0.000D+00 0.100D+01
 Coeff:     -0.461D+00 0.966D+00 0.495D+00
 Gap=     0.083 Goal=   None    Shift=    0.000
 RMSDP=8.24D-04 MaxDP=6.13D-02 DE=-1.51D+00 OVMax= 1.57D-01

 Cycle   4  Pass 0  IDiag  1:
 RMSU=  4.00D-04    CP:  9.10D-01  2.36D+00  4.22D-01
 E= -3632.05166487480     Delta-E=       -0.217336214042 Rises=F Damp=F
 DIIS: error= 1.50D-02 at cycle   4 NSaved=   4.
 NSaved= 4 IEnMin= 4 EnMin= -3632.05166487480     IErMin= 4 ErrMin= 1.50D-02
 ErrMax= 1.50D-02 EMaxC= 1.00D-01 BMatC= 1.92D-01 BMatP= 3.61D-01
 IDIUse=3 WtCom= 8.50D-01 WtEn= 1.50D-01
 Coeff-Com: -0.666D-01 0.195D+00 0.396D+00 0.476D+00
 Coeff-En:   0.000D+00 0.000D+00 0.378D+00 0.622D+00
 Coeff:     -0.566D-01 0.166D+00 0.393D+00 0.498D+00
 Gap=     0.071 Goal=   None    Shift=    0.000
 RMSDP=3.50D-04 MaxDP=3.50D-02 DE=-2.17D-01 OVMax= 6.91D-02

 Cycle   5  Pass 0  IDiag  1:
 RMSU=  8.69D-05    CP:  9.12D-01  2.24D+00  6.26D-01  5.85D-01
 E= -3632.26618682622     Delta-E=       -0.214521951424 Rises=F Damp=F
 DIIS: error= 1.46D-03 at cycle   5 NSaved=   5.
 NSaved= 5 IEnMin= 5 EnMin= -3632.26618682622     IErMin= 5 ErrMin= 1.46D-03
 ErrMax= 1.46D-03 EMaxC= 1.00D-01 BMatC= 3.88D-03 BMatP= 1.92D-01
 IDIUse=3 WtCom= 9.85D-01 WtEn= 1.46D-02
 Coeff-Com:  0.169D-01-0.106D-01 0.160D+00 0.253D+00 0.580D+00
 Coeff-En:   0.000D+00 0.000D+00 0.000D+00 0.000D+00 0.100D+01
 Coeff:      0.166D-01-0.104D-01 0.158D+00 0.250D+00 0.586D+00
 Gap=     0.070 Goal=   None    Shift=    0.000
 RMSDP=8.19D-05 MaxDP=9.01D-03 DE=-2.15D-01 OVMax= 1.66D-02

 Cycle   6  Pass 0  IDiag  1:
 RMSU=  3.75D-05    CP:  9.11D-01  2.25D+00  6.41D-01  5.88D-01  5.14D-01
 E= -3632.26937852055     Delta-E=       -0.003191694334 Rises=F Damp=F
 DIIS: error= 7.97D-04 at cycle   6 NSaved=   6.
 NSaved= 6 IEnMin= 6 EnMin= -3632.26937852055     IErMin= 6 ErrMin= 7.97D-04
 ErrMax= 7.97D-04 EMaxC= 1.00D-01 BMatC= 7.75D-04 BMatP= 3.88D-03
 IDIUse=3 WtCom= 9.92D-01 WtEn= 7.97D-03
 Coeff-Com:  0.145D-01-0.225D-01 0.480D-01 0.907D-01 0.355D+00 0.514D+00
 Coeff-En:   0.000D+00 0.000D+00 0.000D+00 0.000D+00 0.169D+00 0.831D+00
 Coeff:      0.144D-01-0.223D-01 0.476D-01 0.900D-01 0.353D+00 0.517D+00
 Gap=     0.070 Goal=   None    Shift=    0.000
 RMSDP=3.42D-05 MaxDP=2.65D-03 DE=-3.19D-03 OVMax= 1.35D-02

 Cycle   7  Pass 0  IDiag  1:
 RMSU=  1.49D-05    CP:  9.11D-01  2.25D+00  6.37D-01  5.95D-01  6.14D-01
                    CP:  5.65D-01
 E= -3632.27010660898     Delta-E=       -0.000728088427 Rises=F Damp=F
 DIIS: error= 4.52D-04 at cycle   7 NSaved=   7.
 NSaved= 7 IEnMin= 7 EnMin= -3632.27010660898     IErMin= 7 ErrMin= 4.52D-04
 ErrMax= 4.52D-04 EMaxC= 1.00D-01 BMatC= 1.44D-04 BMatP= 7.75D-04
 IDIUse=3 WtCom= 9.95D-01 WtEn= 4.52D-03
 Coeff-Com:  0.512D-02-0.922D-02 0.108D-01 0.257D-01 0.153D+00 0.342D+00
 Coeff-Com:  0.472D+00
 Coeff-En:   0.000D+00 0.000D+00 0.000D+00 0.000D+00 0.000D+00 0.163D+00
 Coeff-En:   0.837D+00
 Coeff:      0.510D-02-0.918D-02 0.107D-01 0.256D-01 0.153D+00 0.341D+00
 Coeff:      0.474D+00
 Gap=     0.070 Goal=   None    Shift=    0.000
 RMSDP=1.65D-05 MaxDP=1.89D-03 DE=-7.28D-04 OVMax= 9.91D-03

 Cycle   8  Pass 0  IDiag  1:
 RMSU=  6.63D-06    CP:  9.11D-01  2.25D+00  6.38D-01  5.98D-01  6.21D-01
                    CP:  6.31D-01  3.88D-01
 E= -3632.27022848836     Delta-E=       -0.000121879377 Rises=F Damp=F
 DIIS: error= 3.07D-04 at cycle   8 NSaved=   8.
 NSaved= 8 IEnMin= 8 EnMin= -3632.27022848836     IErMin= 8 ErrMin= 3.07D-04
 ErrMax= 3.07D-04 EMaxC= 1.00D-01 BMatC= 4.03D-05 BMatP= 1.44D-04
 IDIUse=3 WtCom= 9.97D-01 WtEn= 3.07D-03
 Coeff-Com:  0.182D-02-0.366D-02 0.289D-02 0.925D-02 0.761D-01 0.205D+00
 Coeff-Com:  0.364D+00 0.345D+00
 Coeff-En:   0.000D+00 0.000D+00 0.000D+00 0.000D+00 0.000D+00 0.000D+00
 Coeff-En:   0.249D+00 0.751D+00
 Coeff:      0.181D-02-0.365D-02 0.288D-02 0.922D-02 0.759D-01 0.204D+00
 Coeff:      0.363D+00 0.346D+00
 Gap=     0.070 Goal=   None    Shift=    0.000
 RMSDP=7.58D-06 MaxDP=8.36D-04 DE=-1.22D-04 OVMax= 4.75D-03

 Initial convergence to 1.0D-05 achieved.  Increase integral accuracy.
 Cycle   9  Pass 1  IDiag  1:
 E= -3632.26974916900     Delta-E=        0.000479319362 Rises=F Damp=F
 DIIS: error= 2.95D-04 at cycle   1 NSaved=   1.
 NSaved= 1 IEnMin= 1 EnMin= -3632.26974916900     IErMin= 1 ErrMin= 2.95D-04
 ErrMax= 2.95D-04 EMaxC= 1.00D-01 BMatC= 1.94D-05 BMatP= 1.94D-05
 IDIUse=3 WtCom= 9.97D-01 WtEn= 2.95D-03
 Coeff-Com:  0.100D+01
 Coeff-En:   0.100D+01
 Coeff:      0.100D+01
 Gap=     0.070 Goal=   None    Shift=    0.000
 RMSDP=7.58D-06 MaxDP=8.36D-04 DE= 4.79D-04 OVMax= 3.19D-03

 Cycle  10  Pass 1  IDiag  1:
 RMSU=  8.22D-05    CP:  1.00D+00
 E= -3632.26974295372     Delta-E=        0.000006215274 Rises=F Damp=F
 DIIS: error= 1.90D-04 at cycle   2 NSaved=   2.
 NSaved= 2 IEnMin= 1 EnMin= -3632.26974916900     IErMin= 2 ErrMin= 1.90D-04
 ErrMax= 1.90D-04 EMaxC= 1.00D-01 BMatC= 1.90D-05 BMatP= 1.94D-05
 IDIUse=3 WtCom= 9.98D-01 WtEn= 1.90D-03
 Coeff-Com:  0.497D+00 0.503D+00
 Coeff-En:   0.602D+00 0.398D+00
 Coeff:      0.497D+00 0.503D+00
 Gap=     0.070 Goal=   None    Shift=    0.000
 RMSDP=8.39D-06 MaxDP=9.94D-04 DE= 6.22D-06 OVMax= 5.20D-03

 Cycle  11  Pass 1  IDiag  1:
 RMSU=  5.93D-06    CP:  1.00D+00  1.00D+00
 E= -3632.26973977606     Delta-E=        0.000003177667 Rises=F Damp=F
 DIIS: error= 2.17D-04 at cycle   3 NSaved=   3.
 NSaved= 3 IEnMin= 1 EnMin= -3632.26974916900     IErMin= 2 ErrMin= 1.90D-04
 ErrMax= 2.17D-04 EMaxC= 1.00D-01 BMatC= 2.11D-05 BMatP= 1.90D-05
 IDIUse=3 WtCom= 4.04D-01 WtEn= 5.96D-01
 Coeff-Com:  0.325D-01 0.501D+00 0.466D+00
 Coeff-En:   0.000D+00 0.522D+00 0.478D+00
 Coeff:      0.131D-01 0.514D+00 0.473D+00
 Gap=     0.070 Goal=   None    Shift=    0.000
 RMSDP=4.71D-06 MaxDP=5.39D-04 DE= 3.18D-06 OVMax= 3.01D-03

 Cycle  12  Pass 1  IDiag  1:
 RMSU=  9.01D-07    CP:  1.00D+00  1.01D+00  4.67D-01
 E= -3632.26976493923     Delta-E=       -0.000025163172 Rises=F Damp=F
 DIIS: error= 1.85D-05 at cycle   4 NSaved=   4.
 NSaved= 4 IEnMin= 4 EnMin= -3632.26976493923     IErMin= 4 ErrMin= 1.85D-05
 ErrMax= 1.85D-05 EMaxC= 1.00D-01 BMatC= 8.01D-07 BMatP= 1.90D-05
 IDIUse=1 WtCom= 1.00D+00 WtEn= 0.00D+00
 Coeff-Com: -0.193D-02 0.315D+00 0.303D+00 0.384D+00
 Coeff:     -0.193D-02 0.315D+00 0.303D+00 0.384D+00
 Gap=     0.070 Goal=   None    Shift=    0.000
 RMSDP=8.24D-07 MaxDP=8.73D-05 DE=-2.52D-05 OVMax= 3.11D-04

 Cycle  13  Pass 1  IDiag  1:
 RMSU=  2.11D-07    CP:  1.00D+00  1.01D+00  4.90D-01  4.17D-01
 E= -3632.26976577685     Delta-E=       -0.000000837625 Rises=F Damp=F
 DIIS: error= 3.62D-06 at cycle   5 NSaved=   5.
 NSaved= 5 IEnMin= 5 EnMin= -3632.26976577685     IErMin= 5 ErrMin= 3.62D-06
 ErrMax= 3.62D-06 EMaxC= 1.00D-01 BMatC= 2.31D-08 BMatP= 8.01D-07
 IDIUse=1 WtCom= 1.00D+00 WtEn= 0.00D+00
 Coeff-Com: -0.231D-02 0.177D+00 0.171D+00 0.240D+00 0.414D+00
 Coeff:     -0.231D-02 0.177D+00 0.171D+00 0.240D+00 0.414D+00
 Gap=     0.070 Goal=   None    Shift=    0.000
 RMSDP=1.58D-07 MaxDP=2.04D-05 DE=-8.38D-07 OVMax= 5.54D-05

 Cycle  14  Pass 1  IDiag  1:
 RMSU=  6.81D-08    CP:  1.00D+00  1.01D+00  4.86D-01  4.41D-01  6.14D-01
 E= -3632.26976580292     Delta-E=       -0.000000026070 Rises=F Damp=F
 DIIS: error= 6.73D-07 at cycle   6 NSaved=   6.
 NSaved= 6 IEnMin= 6 EnMin= -3632.26976580292     IErMin= 6 ErrMin= 6.73D-07
 ErrMax= 6.73D-07 EMaxC= 1.00D-01 BMatC= 7.95D-10 BMatP= 2.31D-08
 IDIUse=1 WtCom= 1.00D+00 WtEn= 0.00D+00
 Coeff-Com: -0.110D-02 0.755D-01 0.729D-01 0.105D+00 0.225D+00 0.523D+00
 Coeff:     -0.110D-02 0.755D-01 0.729D-01 0.105D+00 0.225D+00 0.523D+00
 Gap=     0.070 Goal=   None    Shift=    0.000
 RMSDP=3.48D-08 MaxDP=4.33D-06 DE=-2.61D-08 OVMax= 1.32D-05

 Cycle  15  Pass 1  IDiag  1:
 RMSU=  2.12D-08    CP:  1.00D+00  1.01D+00  4.87D-01  4.39D-01  6.25D-01
                    CP:  8.65D-01
 E= -3632.26976580328     Delta-E=       -0.000000000357 Rises=F Damp=F
 DIIS: error= 4.42D-07 at cycle   7 NSaved=   7.
 NSaved= 7 IEnMin= 7 EnMin= -3632.26976580328     IErMin= 7 ErrMin= 4.42D-07
 ErrMax= 4.42D-07 EMaxC= 1.00D-01 BMatC= 2.30D-10 BMatP= 7.95D-10
 IDIUse=1 WtCom= 1.00D+00 WtEn= 0.00D+00
 Coeff-Com: -0.490D-03 0.310D-01 0.298D-01 0.441D-01 0.104D+00 0.370D+00
 Coeff-Com:  0.422D+00
 Coeff:     -0.490D-03 0.310D-01 0.298D-01 0.441D-01 0.104D+00 0.370D+00
 Coeff:      0.422D+00
 Gap=     0.070 Goal=   None    Shift=    0.000
 RMSDP=1.59D-08 MaxDP=1.31D-06 DE=-3.57D-10 OVMax= 4.84D-06

 Cycle  16  Pass 1  IDiag  1:
 RMSU=  7.45D-09    CP:  1.00D+00  1.01D+00  4.87D-01  4.39D-01  6.37D-01
                    CP:  8.84D-01  6.51D-01
 E= -3632.26976580383     Delta-E=       -0.000000000551 Rises=F Damp=F
 DIIS: error= 1.25D-07 at cycle   8 NSaved=   8.
 NSaved= 8 IEnMin= 8 EnMin= -3632.26976580383     IErMin= 8 ErrMin= 1.25D-07
 ErrMax= 1.25D-07 EMaxC= 1.00D-01 BMatC= 1.60D-11 BMatP= 2.30D-10
 IDIUse=1 WtCom= 1.00D+00 WtEn= 0.00D+00
 Coeff-Com: -0.108D-03 0.593D-02 0.558D-02 0.887D-02 0.256D-01 0.141D+00
 Coeff-Com:  0.245D+00 0.568D+00
 Coeff:     -0.108D-03 0.593D-02 0.558D-02 0.887D-02 0.256D-01 0.141D+00
 Coeff:      0.245D+00 0.568D+00
 Gap=     0.070 Goal=   None    Shift=    0.000
 RMSDP=5.10D-09 MaxDP=4.05D-07 DE=-5.51D-10 OVMax= 1.13D-06

 SCF Done:  E(RB3LYP) =  -3632.26976580     A.U. after   16 cycles
             Convg  =    0.5103D-08             -V/T =  2.0039
 KE= 3.618005089706D+03 PE=-2.867742097492D+04 EE= 1.133568272576D+04
 Leave Link  502 at Thu Jan  5 21:24:22 2012, MaxMem= 1073741824 cpu:    4681.8
 (Enter /apps/gaussian/g09/g09/l801.exe)
 ExpMin= 7.78D-02 ExpMax= 1.61D+04 ExpMxC= 2.43D+03 IAcc=3 IRadAn=         5 AccDes= 0.00D+00
 HarFok:  IExCor=  205 AccDes= 0.00D+00 IRadAn=         5 IDoV=-2
 ScaDFX=  1.000000  1.000000  1.000000  1.000000
 Largest valence mixing into a core orbital is  1.37D-04
 Largest core mixing into a valence orbital is  4.38D-05
 Range of M.O.s used for correlation:    85  1336
 NBasis=  1336 NAE=   250 NBE=   250 NFC=    84 NFV=     0
 NROrb=   1252 NOA=   166 NOB=   166 NVA=  1086 NVB=  1086

 **** Warning!!: The largest alpha MO coefficient is  0.11464520D+02


 **** Warning!!: The smallest alpha delta epsilon is  0.70418890D-01

 Leave Link  801 at Thu Jan  5 21:24:24 2012, MaxMem= 1073741824 cpu:      11.0
 (Enter /apps/gaussian/g09/g09/l914.exe)
 RHF ground state
 MDV=  1073741824 DFT=T DoStab=F Mixed=T DoRPA=T DoScal=F NonHer=T
 Would need an additional************ words for in-memory AO integral storage.
 Making orbital integer symmetry assigments:
 Orbital symmetries:
       Occupied  (A) (A) (A) (A) (A) (A) (A) (A) (A) (A) (A) (A)
                 (A) (A) (A) (A) (A) (A) (A) (A) (A) (A) (A) (A)
                 (A) (A) (A) (A) (A) (A) (A) (A) (A) (A) (A) (A)
                 (A) (A) (A) (A) (A) (A) (A) (A) (A) (A) (A) (A)
                 (A) (A) (A) (A) (A) (A) (A) (A) (A) (A) (A) (A)
                 (A) (A) (A) (A) (A) (A) (A) (A) (A) (A) (A) (A)
                 (A) (A) (A) (A) (A) (A) (A) (A) (A) (A) (A) (A)
                 (A) (A) (A) (A) (A) (A) (A) (A) (A) (A) (A) (A)
                 (A) (A) (A) (A) (A) (A) (A) (A) (A) (A) (A) (A)
                 (A) (A) (A) (A) (A) (A) (A) (A) (A) (A) (A) (A)
                 (A) (A) (A) (A) (A) (A) (A) (A) (A) (A) (A) (A)
                 (A) (A) (A) (A) (A) (A) (A) (A) (A) (A) (A) (A)
                 (A) (A) (A) (A) (A) (A) (A) (A) (A) (A) (A) (A)
                 (A) (A) (A) (A) (A) (A) (A) (A) (A) (A) (A) (A)
                 (A) (A) (A) (A) (A) (A) (A) (A) (A) (A) (A) (A)
                 (A) (A) (A) (A) (A) (A) (A) (A) (A) (A) (A) (A)
                 (A) (A) (A) (A) (A) (A) (A) (A) (A) (A) (A) (A)
                 (A) (A) (A) (A) (A) (A) (A) (A) (A) (A) (A) (A)
                 (A) (A) (A) (A) (A) (A) (A) (A) (A) (A) (A) (A)
                 (A) (A) (A) (A) (A) (A) (A) (A) (A) (A) (A) (A)
                 (A) (A) (A) (A) (A) (A) (A) (A) (A) (A)
       Virtual   (A) (A) (A) (A) (A) (A) (A) (A) (A) (A) (A) (A)
                 (A) (A) (A) (A) (A) (A) (A) (A) (A) (A) (A) (A)
                 (A) (A) (A) (A) (A) (A) (A) (A) (A) (A) (A) (A)
                 (A) (A) (A) (A) (A) (A) (A) (A) (A) (A) (A) (A)
                 (A) (A) (A) (A) (A) (A) (A) (A) (A) (A) (A) (A)
                 (A) (A) (A) (A) (A) (A) (A) (A) (A) (A) (A) (A)
                 (A) (A) (A) (A) (A) (A) (A) (A) (A) (A) (A) (A)
                 (A) (A) (A) (A) (A) (A) (A) (A) (A) (A) (A) (A)
                 (A) (A) (A) (A) (A) (A) (A) (A) (A) (A) (A) (A)
                 (A) (A) (A) (A) (A) (A) (A) (A) (A) (A) (A) (A)
                 (A) (A) (A) (A) (A) (A) (A) (A) (A) (A) (A) (A)
                 (A) (A) (A) (A) (A) (A) (A) (A) (A) (A) (A) (A)
                 (A) (A) (A) (A) (A) (A) (A) (A) (A) (A) (A) (A)
                 (A) (A) (A) (A) (A) (A) (A) (A) (A) (A) (A) (A)
                 (A) (A) (A) (A) (A) (A) (A) (A) (A) (A) (A) (A)
                 (A) (A) (A) (A) (A) (A) (A) (A) (A) (A) (A) (A)
                 (A) (A) (A) (A) (A) (A) (A) (A) (A) (A) (A) (A)
                 (A) (A) (A) (A) (A) (A) (A) (A) (A) (A) (A) (A)
                 (A) (A) (A) (A) (A) (A) (A) (A) (A) (A) (A) (A)
                 (A) (A) (A) (A) (A) (A) (A) (A) (A) (A) (A) (A)
                 (A) (A) (A) (A) (A) (A) (A) (A) (A) (A) (A) (A)
                 (A) (A) (A) (A) (A) (A) (A) (A) (A) (A) (A) (A)
                 (A) (A) (A) (A) (A) (A) (A) (A) (A) (A) (A) (A)
                 (A) (A) (A) (A) (A) (A) (A) (A) (A) (A) (A) (A)
                 (A) (A) (A) (A) (A) (A) (A) (A) (A) (A) (A) (A)
                 (A) (A) (A) (A) (A) (A) (A) (A) (A) (A) (A) (A)
                 (A) (A) (A) (A) (A) (A) (A) (A) (A) (A) (A) (A)
                 (A) (A) (A) (A) (A) (A) (A) (A) (A) (A) (A) (A)
                 (A) (A) (A) (A) (A) (A) (A) (A) (A) (A) (A) (A)
                 (A) (A) (A) (A) (A) (A) (A) (A) (A) (A) (A) (A)
                 (A) (A) (A) (A) (A) (A) (A) (A) (A) (A) (A) (A)
                 (A) (A) (A) (A) (A) (A) (A) (A) (A) (A) (A) (A)
                 (A) (A) (A) (A) (A) (A) (A) (A) (A) (A) (A) (A)
                 (A) (A) (A) (A) (A) (A) (A) (A) (A) (A) (A) (A)
                 (A) (A) (A) (A) (A) (A) (A) (A) (A) (A) (A) (A)
                 (A) (A) (A) (A) (A) (A) (A) (A) (A) (A) (A) (A)
                 (A) (A) (A) (A) (A) (A) (A) (A) (A) (A) (A) (A)
                 (A) (A) (A) (A) (A) (A) (A) (A) (A) (A) (A) (A)
                 (A) (A) (A) (A) (A) (A) (A) (A) (A) (A) (A) (A)
                 (A) (A) (A) (A) (A) (A) (A) (A) (A) (A) (A) (A)
                 (A) (A) (A) (A) (A) (A) (A) (A) (A) (A) (A) (A)
                 (A) (A) (A) (A) (A) (A) (A) (A) (A) (A) (A) (A)
                 (A) (A) (A) (A) (A) (A) (A) (A) (A) (A) (A) (A)
                 (A) (A) (A) (A) (A) (A) (A) (A) (A) (A) (A) (A)
                 (A) (A) (A) (A) (A) (A) (A) (A) (A) (A) (A) (A)
                 (A) (A) (A) (A) (A) (A) (A) (A) (A) (A) (A) (A)
                 (A) (A) (A) (A) (A) (A) (A) (A) (A) (A) (A) (A)
                 (A) (A) (A) (A) (A) (A) (A) (A) (A) (A) (A) (A)
                 (A) (A) (A) (A) (A) (A) (A) (A) (A) (A) (A) (A)
                 (A) (A) (A) (A) (A) (A) (A) (A) (A) (A) (A) (A)
                 (A) (A) (A) (A) (A) (A) (A) (A) (A) (A) (A) (A)
                 (A) (A) (A) (A) (A) (A) (A) (A) (A) (A) (A) (A)
                 (A) (A) (A) (A) (A) (A) (A) (A) (A) (A) (A) (A)
                 (A) (A) (A) (A) (A) (A) (A) (A) (A) (A) (A) (A)
                 (A) (A) (A) (A) (A) (A) (A) (A) (A) (A) (A) (A)
                 (A) (A) (A) (A) (A) (A) (A) (A) (A) (A) (A) (A)
                 (A) (A) (A) (A) (A) (A) (A) (A) (A) (A) (A) (A)
                 (A) (A) (A) (A) (A) (A) (A) (A) (A) (A) (A) (A)
                 (A) (A) (A) (A) (A) (A) (A) (A) (A) (A) (A) (A)
                 (A) (A) (A) (A) (A) (A) (A) (A) (A) (A) (A) (A)
                 (A) (A) (A) (A) (A) (A) (A) (A) (A) (A) (A) (A)
                 (A) (A) (A) (A) (A) (A) (A) (A) (A) (A) (A) (A)
                 (A) (A) (A) (A) (A) (A) (A) (A) (A) (A) (A) (A)
                 (A) (A) (A) (A) (A) (A) (A) (A) (A) (A) (A) (A)
                 (A) (A) (A) (A) (A) (A) (A) (A) (A) (A) (A) (A)
                 (A) (A) (A) (A) (A) (A) (A) (A) (A) (A) (A) (A)
                 (A) (A) (A) (A) (A) (A) (A) (A) (A) (A) (A) (A)
                 (A) (A) (A) (A) (A) (A) (A) (A) (A) (A) (A) (A)
                 (A) (A) (A) (A) (A) (A) (A) (A) (A) (A) (A) (A)
                 (A) (A) (A) (A) (A) (A) (A) (A) (A) (A) (A) (A)
                 (A) (A) (A) (A) (A) (A) (A) (A) (A) (A) (A) (A)
                 (A) (A) (A) (A) (A) (A) (A) (A) (A) (A) (A) (A)
                 (A) (A) (A) (A) (A) (A) (A) (A) (A) (A) (A) (A)
                 (A) (A) (A) (A) (A) (A) (A) (A) (A) (A) (A) (A)
                 (A) (A) (A) (A) (A) (A) (A) (A) (A) (A) (A) (A)
                 (A) (A) (A) (A) (A) (A) (A) (A) (A) (A) (A) (A)
                 (A) (A) (A) (A) (A) (A) (A) (A) (A) (A) (A) (A)
                 (A) (A) (A) (A) (A) (A) (A) (A) (A) (A) (A) (A)
                 (A) (A) (A) (A) (A) (A) (A) (A) (A) (A) (A) (A)
                 (A) (A) (A) (A) (A) (A) (A) (A) (A) (A) (A) (A)
                 (A) (A) (A) (A) (A) (A) (A) (A) (A) (A) (A) (A)
                 (A) (A) (A) (A) (A) (A) (A) (A) (A) (A) (A) (A)
                 (A) (A) (A) (A) (A) (A) (A) (A) (A) (A) (A) (A)
                 (A) (A) (A) (A) (A) (A) (A) (A) (A) (A) (A) (A)
                 (A) (A) (A) (A) (A) (A) (A) (A) (A) (A) (A) (A)
                 (A) (A) (A) (A) (A) (A) (A) (A) (A) (A) (A) (A)
                 (A) (A) (A) (A) (A) (A) (A) (A) (A) (A) (A) (A)
                 (A) (A) (A) (A) (A) (A) (A) (A) (A) (A) (A) (A)
                 (A) (A) (A) (A) (A) (A) (A) (A) (A) (A) (A) (A)
                 (A) (A) (A) (A) (A) (A) (A) (A) (A) (A) (A) (A)
                 (A) (A) (A) (A) (A) (A)
   100 initial guesses have been made.
 Convergence on wavefunction:    0.001000000000000
 Davidson Disk Diagonalization:  ConvIn= 1.00D-03 SkipCon=T Conv= 1.00D-03.
 Max sub-space:   400 roots to seek:   100 dimension of matrix: 360552
 Iteration     1 Dimension   100 NMult   100
 Cannot handle 2e integral symmetry, ISym2E=1.
 CISAX:  IP=  8 NPass=   4 NMax=    25.
 CISAX will form    25 AO SS matrices at one time.
 NMat=    25 NSing=    25.
 FoFCou: FMM=T IPFlag=           0 FMFlag=      100000 FMFlg1=        2001
         NFxFlg=           0 DoJE=F BraDBF=F KetDBF=F FulRan=T
         Omega=  0.000000  0.000000  1.000000  0.000000  0.000000 ICntrl=       0 IOpCl=  0
         NMat0=   25 NMatS0=   25 NMatT0=    0 NMatD0=   25 NMtDS0=    0 NMtDT0=    0
         I1Cent=           0 NGrid=           0.
 Symmetry not used in FoFCou.
 FMM levels:  10  Number of levels for PrismC:   9
 NMat=    25 NSing=    25.
 NMat=    25 NSing=    25.
 NMat=    25 NSing=    25.
 Cannot handle 2e integral symmetry, ISym2E=1.
 CISAX:  IP=  8 NPass=   4 NMax=    25.
 CISAX will form    25 AO SS matrices at one time.
 NMat=    25 NSing=    25.
 NMat=    25 NSing=    25.
 NMat=    25 NSing=    25.
 NMat=    25 NSing=    25.
 New state      5 was old state      6
 New state      6 was old state      5
 New state      9 was old state     10
 New state     10 was old state     12
 New state     11 was old state     17
 New state     12 was old state     18
 New state     13 was old state      9
 New state     14 was old state     11
 New state     17 was old state     13
 New state     18 was old state     14
 No map to state     21
 No map to state     22
 New state     23 was old state     22
 New state     24 was old state     21
 No map to state     25
 Excitation Energies [eV] at current iteration:
 Root      1 :     1.657599930233727
 Root      2 :     1.658707357480220
 Root      3 :     2.189289350884665
 Root      4 :     2.209513164185751
 Root      5 :     2.742072364800699
 Root      6 :     2.742957916518416
 Root      7 :     2.889279285267619
 Root      8 :     2.893649318207109
 Root      9 :     3.184978534510861
 Root     10 :     3.185430163886305
 Root     11 :     3.250476390235997
 Root     12 :     3.251873142294842
 Root     13 :     3.342113405655333
 Root     14 :     3.342228946608850
 Root     15 :     3.399869469799589
 Root     16 :     3.403849546961803
 Root     17 :     3.509402627610815
 Root     18 :     3.509512322822440
 Root     19 :     3.547439289819485
 Root     20 :     3.547750538930032
 Root     21 :     3.743758654464301
 Root     22 :     3.744298854752721
 Root     23 :     3.781487914234684
 Root     24 :     3.783222779207597
 Root     25 :     3.831536197939695
 Iteration     2 Dimension   150 NMult   150
 Cannot handle 2e integral symmetry, ISym2E=1.
 CISAX:  IP=  8 NPass=   2 NMax=    25.
 CISAX will form    25 AO SS matrices at one time.
 NMat=    25 NSing=    25.
 NMat=    25 NSing=    25.
 Cannot handle 2e integral symmetry, ISym2E=1.
 CISAX:  IP=  8 NPass=   2 NMax=    25.
 CISAX will form    25 AO SS matrices at one time.
 NMat=    25 NSing=    25.
 NMat=    25 NSing=    25.
 Root      1 not converged, maximum delta is    0.129934085584813
 Root      2 not converged, maximum delta is    0.129332442740992
 Root      3 not converged, maximum delta is    0.155001893353693
 Root      4 not converged, maximum delta is    0.156030204138886
 Root      5 not converged, maximum delta is    0.108218037239625
 Root      6 not converged, maximum delta is    0.108324154502954
 Root      7 not converged, maximum delta is    0.026388727017795
 Root      8 not converged, maximum delta is    0.025765362914370
 New state      9 was old state     10
 Root      9 not converged, maximum delta is    0.123873520884958
 New state     10 was old state      9
 Root     10 not converged, maximum delta is    0.102908990106598
 New state     11 was old state     17
 Root     11 not converged, maximum delta is    0.240904777037516
 New state     12 was old state     11
 Root     12 not converged, maximum delta is    0.373302336385662
 New state     13 was old state     18
 Root     13 not converged, maximum delta is    0.459023695386544
 New state     14 was old state     12
 Root     14 not converged, maximum delta is    0.177105171809835
 New state     15 was old state     14
 Root     15 not converged, maximum delta is    0.135514587388383
 New state     16 was old state     13
 Root     16 not converged, maximum delta is    0.139821847942040
 New state     17 was old state     15
 Root     17 not converged, maximum delta is    0.171911372256409
 New state     18 was old state     16
 Root     18 not converged, maximum delta is    0.148951229553790
 New state     19 was old state     20
 Root     19 not converged, maximum delta is    0.107489725795443
 New state     20 was old state     19
 Root     20 not converged, maximum delta is    0.105284655972426
 New state     21 was old state     23
 Root     21 not converged, maximum delta is    0.711264070278465
 New state     22 was old state     24
 Root     22 not converged, maximum delta is    0.684621357930621
 New state     23 was old state     21
 Root     23 not converged, maximum delta is    0.135904201370675
 New state     24 was old state     22
 Root     24 not converged, maximum delta is    0.155524391684218
 Root     25 not converged, maximum delta is    0.162199539620157
 Excitation Energies [eV] at current iteration:
 Root      1 :     1.649821831056274   Change is   -0.007778099177453
 Root      2 :     1.651647144360757   Change is   -0.007060213119463
 Root      3 :     1.739597772502226   Change is   -0.449691578382438
 Root      4 :     1.748295633360186   Change is   -0.461217530825566
 Root      5 :     2.667409392645872   Change is   -0.074662972154827
 Root      6 :     2.668396061550161   Change is   -0.074561854968255
 Root      7 :     2.883615501913912   Change is   -0.005663783353708
 Root      8 :     2.887603219278608   Change is   -0.006046098928501
 Root      9 :     3.130038703943954   Change is   -0.055391459942351
 Root     10 :     3.131779271181139   Change is   -0.053199263329723
 Root     11 :     3.185624463858929   Change is   -0.323778163751886
 Root     12 :     3.186859491793025   Change is   -0.063616898442972
 Root     13 :     3.191502826207449   Change is   -0.318009496614991
 Root     14 :     3.196260827530603   Change is   -0.055612314764239
 Root     15 :     3.349034865656587   Change is    0.006805919047737
 Root     16 :     3.349182597335954   Change is    0.007069191680621
 Root     17 :     3.401705415052515   Change is    0.001835945252925
 Root     18 :     3.403666889169691   Change is   -0.000182657792112
 Root     19 :     3.542852592899283   Change is   -0.004897946030749
 Root     20 :     3.544152655079607   Change is   -0.003286634739878
 Root     21 :     3.682925813157408   Change is   -0.098562101077276
 Root     22 :     3.700490164346521   Change is   -0.082732614861076
 Root     23 :     3.710773337233299   Change is   -0.032985317231002
 Root     24 :     3.711037988029218   Change is   -0.033260866723503
 Root     25 :     3.782598517320493   Change is   -0.048937680619202
 Iteration     3 Dimension   200 NMult   200
 Cannot handle 2e integral symmetry, ISym2E=1.
 CISAX:  IP=  8 NPass=   2 NMax=    25.
 CISAX will form    25 AO SS matrices at one time.
 NMat=    25 NSing=    25.
 NMat=    25 NSing=    25.
 Cannot handle 2e integral symmetry, ISym2E=1.
 CISAX:  IP=  8 NPass=   2 NMax=    25.
 CISAX will form    25 AO SS matrices at one time.
 NMat=    25 NSing=    25.
 NMat=    25 NSing=    25.
 Root      1 not converged, maximum delta is    0.022467976351007
 Root      2 not converged, maximum delta is    0.021894902373500
 Root      3 not converged, maximum delta is    0.022411511819783
 Root      4 not converged, maximum delta is    0.022867739655474
 Root      5 not converged, maximum delta is    0.007517034278875
 Root      6 not converged, maximum delta is    0.007394056830833
 Root      7 not converged, maximum delta is    0.004493419301150
 Root      8 not converged, maximum delta is    0.005698833072963
 Root      9 not converged, maximum delta is    0.013900189756403
 Root     10 not converged, maximum delta is    0.010855940673904
 Root     11 not converged, maximum delta is    0.058212908172772
 Root     12 not converged, maximum delta is    0.173686833011184
 Root     13 not converged, maximum delta is    0.212360626295277
 Root     14 not converged, maximum delta is    0.075932792049191
 Root     15 not converged, maximum delta is    0.006700300939684
 Root     16 not converged, maximum delta is    0.006712689111603
 Root     17 not converged, maximum delta is    0.005928583020890
 Root     18 not converged, maximum delta is    0.005098748285822
 Root     19 not converged, maximum delta is    0.007089697339117
 Root     20 not converged, maximum delta is    0.004967009419303
 Root     21 not converged, maximum delta is    0.066723443717978
 Root     22 not converged, maximum delta is    0.108863571254254
 Root     23 not converged, maximum delta is    0.081492924551304
 Root     24 not converged, maximum delta is    0.117289172376529
 Root     25 not converged, maximum delta is    0.092214836647596
 Excitation Energies [eV] at current iteration:
 Root      1 :     1.648569535990880   Change is   -0.001252295065394
 Root      2 :     1.650581710813038   Change is   -0.001065433547719
 Root      3 :     1.729493071178203   Change is   -0.010104701324024
 Root      4 :     1.737252440932880   Change is   -0.011043192427306
 Root      5 :     2.662544109418564   Change is   -0.004865283227309
 Root      6 :     2.663647649675761   Change is   -0.004748411874400
 Root      7 :     2.882886543311848   Change is   -0.000728958602064
 Root      8 :     2.886618851293600   Change is   -0.000984367985008
 Root      9 :     3.124343032295542   Change is   -0.005695671648412
 Root     10 :     3.125558095040359   Change is   -0.006221176140780
 Root     11 :     3.170862326342444   Change is   -0.014762137516485
 Root     12 :     3.172641303701001   Change is   -0.014218188092023
 Root     13 :     3.185643159755257   Change is   -0.005859666452192
 Root     14 :     3.190352724173060   Change is   -0.005908103357543
 Root     15 :     3.348577446294593   Change is   -0.000457419361995
 Root     16 :     3.348732938997015   Change is   -0.000449658338939
 Root     17 :     3.401047104908254   Change is   -0.000658310144261
 Root     18 :     3.402998423230819   Change is   -0.000668465938871
 Root     19 :     3.542517358891798   Change is   -0.000335234007485
 Root     20 :     3.543828963058386   Change is   -0.000323692021221
 Root     21 :     3.644881470757529   Change is   -0.038044342399879
 Root     22 :     3.659550815679920   Change is   -0.040939348666601
 Root     23 :     3.707919076479961   Change is   -0.002854260753338
 Root     24 :     3.708429977464520   Change is   -0.002608010564697
 Root     25 :     3.775781243237523   Change is   -0.006817274082970
 Iteration     4 Dimension   250 NMult   250
 Cannot handle 2e integral symmetry, ISym2E=1.
 CISAX:  IP=  8 NPass=   2 NMax=    25.
 CISAX will form    25 AO SS matrices at one time.
 NMat=    25 NSing=    25.
 NMat=    25 NSing=    25.
 Cannot handle 2e integral symmetry, ISym2E=1.
 CISAX:  IP=  8 NPass=   2 NMax=    25.
 CISAX will form    25 AO SS matrices at one time.
 NMat=    25 NSing=    25.
 NMat=    25 NSing=    25.
 Root      1 not converged, maximum delta is    0.002663798919301
 Root      2 not converged, maximum delta is    0.002753487034232
 Root      3 not converged, maximum delta is    0.002770447219212
 Root      4 not converged, maximum delta is    0.002639282829815
 Root      5 not converged, maximum delta is    0.001203154077283
 Root      6 has converged.
 Root      7 has converged.
 Root      8 has converged.
 Root      9 not converged, maximum delta is    0.001665179211181
 Root     10 not converged, maximum delta is    0.001638988748841
 Root     11 not converged, maximum delta is    0.002940643237610
 Root     12 not converged, maximum delta is    0.003760927084245
 Root     13 not converged, maximum delta is    0.004574399209495
 Root     14 not converged, maximum delta is    0.004116441624813
 Root     15 has converged.
 Root     16 has converged.
 Root     17 has converged.
 Root     18 has converged.
 Root     19 not converged, maximum delta is    0.001341525819211
 Root     20 has converged.
 Root     21 not converged, maximum delta is    0.006607740692100
 Root     22 not converged, maximum delta is    0.005906450002888
 Root     23 not converged, maximum delta is    0.007807325394910
 Root     24 not converged, maximum delta is    0.007840264076913
 Root     25 not converged, maximum delta is    0.032261851830852
 Excitation Energies [eV] at current iteration:
 Root      1 :     1.648424486372458   Change is   -0.000145049618421
 Root      2 :     1.650447389970190   Change is   -0.000134320842848
 Root      3 :     1.728426796351849   Change is   -0.001066274826354
 Root      4 :     1.736114656882005   Change is   -0.001137784050875
 Root      5 :     2.662161231338319   Change is   -0.000382878080244
 Root      6 :     2.663298755818852   Change is   -0.000348893856909
 Root      7 :     2.882808312768818   Change is   -0.000078230543030
 Root      8 :     2.886529496554109   Change is   -0.000089354739492
 Root      9 :     3.123653395000883   Change is   -0.000689637294659
 Root     10 :     3.125011548019422   Change is   -0.000546547020937
 Root     11 :     3.169576383810986   Change is   -0.001285942531458
 Root     12 :     3.171378894714620   Change is   -0.001262408986381
 Root     13 :     3.185242206915358   Change is   -0.000400952839899
 Root     14 :     3.189839607343343   Change is   -0.000513116829716
 Root     15 :     3.348540444194585   Change is   -0.000037002100007
 Root     16 :     3.348695502446271   Change is   -0.000037436550743
 Root     17 :     3.400980420305423   Change is   -0.000066684602831
 Root     18 :     3.402943013590125   Change is   -0.000055409640694
 Root     19 :     3.542469565190838   Change is   -0.000047793700960
 Root     20 :     3.543785967845037   Change is   -0.000042995213349
 Root     21 :     3.639583819495968   Change is   -0.005297651261561
 Root     22 :     3.655209491522705   Change is   -0.004341324157215
 Root     23 :     3.707731719196529   Change is   -0.000187357283431
 Root     24 :     3.708293151604407   Change is   -0.000136825860113
 Root     25 :     3.774266310857019   Change is   -0.001514932380504
 Iteration     5 Dimension   284 NMult   284
 Cannot handle 2e integral symmetry, ISym2E=1.
 CISAX:  IP=  8 NPass=   2 NMax=    17.
[...]
 Alpha virt. eigenvalues --    1.48298   1.48362   1.48366   1.49226   1.49454
 Alpha virt. eigenvalues --    1.50118   1.50252   1.51166   1.51334   1.52365
 Alpha virt. eigenvalues --    1.52568   1.54244   1.54600   1.54841   1.54843
 Alpha virt. eigenvalues --    1.55502   1.55543   1.56658   1.57157   1.57376
 Alpha virt. eigenvalues --    1.57536   1.58465   1.58613   1.58901   1.58938
 Alpha virt. eigenvalues --    1.59075   1.59091   1.59522   1.59542   1.59931
 Alpha virt. eigenvalues --    1.59968   1.60217   1.60327   1.60874   1.61282
 Alpha virt. eigenvalues --    1.61482   1.61682   1.61969   1.62463   1.62681
 Alpha virt. eigenvalues --    1.62699   1.64060   1.64478   1.66823   1.66844
 Alpha virt. eigenvalues --    1.67650   1.67749   1.70362   1.70555   1.71708
 Alpha virt. eigenvalues --    1.71771   1.73339   1.73341   1.74205   1.74425
 Alpha virt. eigenvalues --    1.74529   1.74682   1.74871   1.74956   1.75456
 Alpha virt. eigenvalues --    1.75492   1.77522   1.77526   1.79582   1.79724
 Alpha virt. eigenvalues --    1.80203   1.80217   1.80855   1.80960   1.81435
 Alpha virt. eigenvalues --    1.81451   1.81927   1.81987   1.83337   1.83447
 Alpha virt. eigenvalues --    1.85768   1.85825   1.86763   1.86764   1.87059
 Alpha virt. eigenvalues --    1.87184   1.88948   1.89069   1.89420   1.89487
 Alpha virt. eigenvalues --    1.91891   1.91957   1.92143   1.92166   1.93544
 Alpha virt. eigenvalues --    1.93579   1.94123   1.94172   1.94858   1.94870
 Alpha virt. eigenvalues --    1.95120   1.95216   1.95662   1.95779   1.96145
 Alpha virt. eigenvalues --    1.96180   1.96913   1.97044   1.97950   1.97952
 Alpha virt. eigenvalues --    1.98686   1.98733   1.98907   1.99048   1.99566
 Alpha virt. eigenvalues --    1.99569   1.99742   1.99785   2.00118   2.00149
 Alpha virt. eigenvalues --    2.00240   2.00321   2.01122   2.01277   2.02187
 Alpha virt. eigenvalues --    2.02213   2.02891   2.03012   2.03784   2.03848
 Alpha virt. eigenvalues --    2.03959   2.03970   2.05142   2.05343   2.05666
 Alpha virt. eigenvalues --    2.05673   2.06196   2.06368   2.07481   2.07696
 Alpha virt. eigenvalues --    2.08205   2.08243   2.09417   2.09487   2.10056
 Alpha virt. eigenvalues --    2.10177   2.10475   2.10476   2.10747   2.10748
 Alpha virt. eigenvalues --    2.10986   2.10993   2.11057   2.11064   2.11353
 Alpha virt. eigenvalues --    2.11359   2.11413   2.11465   2.11686   2.11699
 Alpha virt. eigenvalues --    2.12995   2.13164   2.13759   2.13803   2.15077
 Alpha virt. eigenvalues --    2.15257   2.17270   2.17295   2.17739   2.17741
 Alpha virt. eigenvalues --    2.17928   2.17929   2.18907   2.18985   2.19988
 Alpha virt. eigenvalues --    2.20003   2.21738   2.21748   2.22273   2.22281
 Alpha virt. eigenvalues --    2.22674   2.22677   2.22819   2.22825   2.23076
 Alpha virt. eigenvalues --    2.23125   2.23357   2.23471   2.24286   2.24305
 Alpha virt. eigenvalues --    2.24683   2.24683   2.25384   2.25445   2.25858
 Alpha virt. eigenvalues --    2.26274   2.26466   2.26477   2.26996   2.27176
 Alpha virt. eigenvalues --    2.27559   2.27828   2.28028   2.28181   2.29005
 Alpha virt. eigenvalues --    2.29085   2.29323   2.29390   2.29787   2.29789
 Alpha virt. eigenvalues --    2.30114   2.30152   2.30501   2.30629   2.30670
 Alpha virt. eigenvalues --    2.30682   2.31298   2.31324   2.31626   2.31676
 Alpha virt. eigenvalues --    2.32394   2.32452   2.32883   2.33133   2.33943
 Alpha virt. eigenvalues --    2.34173   2.35212   2.35314   2.36330   2.36549
 Alpha virt. eigenvalues --    2.37446   2.37858   2.37977   2.38544   2.38620
 Alpha virt. eigenvalues --    2.38648   2.39604   2.39993   2.42566   2.42727
 Alpha virt. eigenvalues --    2.42885   2.43351   2.44511   2.44512   2.44666
 Alpha virt. eigenvalues --    2.44783   2.45558   2.45720   2.46896   2.47004
 Alpha virt. eigenvalues --    2.47215   2.47235   2.47333   2.47414   2.47458
 Alpha virt. eigenvalues --    2.47609   2.48154   2.48226   2.49313   2.49350
 Alpha virt. eigenvalues --    2.49784   2.50296   2.50814   2.50883   2.51109
 Alpha virt. eigenvalues --    2.51121   2.51136   2.51240   2.51777   2.52262
 Alpha virt. eigenvalues --    2.52514   2.52535   2.52596   2.52665   2.52753
 Alpha virt. eigenvalues --    2.52794   2.53099   2.53185   2.53278   2.53337
 Alpha virt. eigenvalues --    2.53480   2.53597   2.54495   2.54501   2.54994
 Alpha virt. eigenvalues --    2.55120   2.55798   2.56027   2.56062   2.56077
 Alpha virt. eigenvalues --    2.57857   2.57959   2.58619   2.58663   2.59426
 Alpha virt. eigenvalues --    2.59480   2.60054   2.60055   2.60412   2.60433
 Alpha virt. eigenvalues --    2.61272   2.61291   2.62932   2.63136   2.63645
 Alpha virt. eigenvalues --    2.63831   2.65212   2.65400   2.65737   2.65916
 Alpha virt. eigenvalues --    2.67384   2.67396   2.67509   2.67647   2.67672
 Alpha virt. eigenvalues --    2.67920   2.68159   2.68202   2.68729   2.68752
 Alpha virt. eigenvalues --    2.69749   2.70013   2.74508   2.74540   2.75452
 Alpha virt. eigenvalues --    2.75465   2.75670   2.75685   2.75889   2.75895
 Alpha virt. eigenvalues --    2.76123   2.76179   2.76452   2.76529   2.77754
 Alpha virt. eigenvalues --    2.77929   2.78310   2.78701   2.79883   2.80135
 Alpha virt. eigenvalues --    2.80772   2.80839   2.80906   2.80959   2.81731
 Alpha virt. eigenvalues --    2.81734   2.81815   2.81829   2.82079   2.82378
 Alpha virt. eigenvalues --    2.82641   2.82722   2.83261   2.83664   2.84709
 Alpha virt. eigenvalues --    2.84777   2.85731   2.85817   2.87099   2.87501
 Alpha virt. eigenvalues --    2.89915   2.90167   2.90421   2.90453   2.90612
 Alpha virt. eigenvalues --    2.90653   2.91209   2.91616   2.91678   2.91753
 Alpha virt. eigenvalues --    2.91996   2.92389   2.92406   2.92628   3.01854
 Alpha virt. eigenvalues --    3.02045   3.02388   3.02436   3.03702   3.03828
 Alpha virt. eigenvalues --    3.05541   3.05545   3.05860   3.05867   3.06617
 Alpha virt. eigenvalues --    3.06743   3.07133   3.07244   3.08050   3.08056
 Alpha virt. eigenvalues --    3.08188   3.08294   3.08471   3.08477   3.08673
 Alpha virt. eigenvalues --    3.08689   3.08710   3.08744   3.09120   3.09129
 Alpha virt. eigenvalues --    3.09543   3.09590   3.10365   3.10481   3.11730
 Alpha virt. eigenvalues --    3.11800   3.12562   3.12630   3.14269   3.14328
 Alpha virt. eigenvalues --    3.15388   3.15429   3.18551   3.18746   3.21648
 Alpha virt. eigenvalues --    3.21681   3.22196   3.22288   3.26179   3.26195
 Alpha virt. eigenvalues --    3.28344   3.28369   3.29581   3.29655   3.29896
 Alpha virt. eigenvalues --    3.29907   3.33560   3.33628   3.33800   3.33895
 Alpha virt. eigenvalues --    3.40305   3.40365   3.45501   3.45510   3.50375
 Alpha virt. eigenvalues --    3.50393   3.54972   3.55020   3.60740   3.60754
 Alpha virt. eigenvalues --    3.61088   3.61128   3.61352   3.61359   3.61406
 Alpha virt. eigenvalues --    3.61418   3.61528   3.61550   3.61906   3.61963
 Alpha virt. eigenvalues --    3.63245   3.63739   3.64163   3.64484   3.65890
 Alpha virt. eigenvalues --    3.65893   3.67012   3.67022   3.71274   3.71282
 Alpha virt. eigenvalues --    3.71529   3.71536   3.71852   3.71923   3.71973
 Alpha virt. eigenvalues --    3.72066   3.72129   3.72190   3.72264   3.72311
 Alpha virt. eigenvalues --    3.72341   3.72430   3.72455   3.72470   3.72787
 Alpha virt. eigenvalues --    3.72821   3.72942   3.72976   3.73253   3.73257
 Alpha virt. eigenvalues --    3.73500   3.73503   3.75141   3.75144   3.76524
 Alpha virt. eigenvalues --    3.76596   3.83406   3.83446   3.85106   3.85156
 Alpha virt. eigenvalues --    3.86866   3.86872   3.87166   3.87177   3.94735
 Alpha virt. eigenvalues --    3.94750   3.96231   3.96252   4.07732   4.07749
 Alpha virt. eigenvalues --    4.10751   4.10754   4.11739   4.11778   4.11903
 Alpha virt. eigenvalues --    4.11934   4.13620   4.13644   4.14275   4.14315
 Alpha virt. eigenvalues --    4.14720   4.14727   4.17003   4.17010   4.17478
 Alpha virt. eigenvalues --    4.17520   4.18394   4.18492   4.19900   4.20368
 Alpha virt. eigenvalues --    4.21747   4.21755   4.22189   4.22546   4.31528
 Alpha virt. eigenvalues --    4.31554   4.33803   4.33811   4.35400   4.35621
 Alpha virt. eigenvalues --    4.36865   4.36952   4.39359   4.39563   4.40414
 Alpha virt. eigenvalues --    4.40464   4.41732   4.41733   4.43398   4.43449
 Alpha virt. eigenvalues --    4.44950   4.45147   4.45585   4.45742   4.45882
 Alpha virt. eigenvalues --    4.46137   4.46543   4.47094   4.50645   4.50681
 Alpha virt. eigenvalues --    4.52050   4.52339   4.54738   4.54775   4.59769
 Alpha virt. eigenvalues --    4.59919   4.64072   4.64081   4.78410   4.78440
 Alpha virt. eigenvalues --    4.86656   4.86755   4.96450   4.96454   5.09970
 Alpha virt. eigenvalues --    5.09994
          Condensed to atoms (all electrons):
 Mulliken atomic charges:
              1
     1  Si   0.533050
     2  C   -0.064420
     3  C    0.097272
     4  C   -0.162818
     5  H    0.067611
     6  C    0.096451
     7  C   -0.082467
     8  H    0.056385
     9  C   -0.065225
    10  H    0.059073
    11  C   -0.061984
    12  H    0.059424
    13  C   -0.082167
    14  H    0.056971
    15  C    0.109782
    16  C   -0.169727
    17  H    0.062566
    18  C    0.117721
    19  C    0.402373
    20  C   -0.621280
    21  C   -0.478091
    22  H    0.114494
    23  H    0.128193
    24  H    0.134061
    25  C   -0.521943
    26  H    0.124727
    27  H    0.118318
    28  H    0.121749
    29  C   -0.521060
    30  H    0.131327
    31  H    0.120585
    32  H    0.127918
    33  Si   0.551361
    34  C   -0.067124
    35  C    0.098350
    36  C   -0.163310
    37  H    0.066544
    38  C    0.099612
    39  C   -0.086941
    40  H    0.055555
    41  C   -0.062804
    42  H    0.058182
    43  C   -0.061452
    44  H    0.061445
    45  C   -0.106672
    46  H    0.065466
    47  C    0.114080
    48  C   -0.166108
    49  H    0.066210
    50  C    0.116342
    51  C    0.407911
    52  C   -0.625421
    53  C   -0.515522
    54  H    0.128581
    55  H    0.118766
    56  H    0.128725
    57  C   -0.521850
    58  H    0.125661
    59  H    0.119810
    60  H    0.125291
    61  C   -0.520426
    62  H    0.128919
    63  H    0.121136
    64  H    0.130809
    65  Si   0.551351
    66  C   -0.067176
    67  C    0.098365
    68  C   -0.163280
    69  H    0.066543
    70  C    0.099635
    71  C   -0.086935
    72  H    0.055553
    73  C   -0.062830
    74  H    0.058195
    75  C   -0.061459
    76  H    0.061450
    77  C   -0.106663
    78  H    0.065464
    79  C    0.114067
    80  C   -0.166027
    81  H    0.066190
    82  C    0.116243
    83  C    0.407794
    84  C   -0.625295
    85  C   -0.515527
    86  H    0.128585
    87  H    0.118762
    88  H    0.128718
    89  C   -0.521853
    90  H    0.125656
    91  H    0.119809
    92  H    0.125287
    93  C   -0.520426
    94  H    0.128920
    95  H    0.121138
    96  H    0.130817
    97  Si   0.533063
    98  C   -0.064377
    99  C    0.097233
   100  C   -0.162770
   101  H    0.067583
   102  C    0.096437
   103  C   -0.082495
   104  H    0.056402
   105  C   -0.065210
   106  H    0.059076
   107  C   -0.061990
   108  H    0.059418
   109  C   -0.082170
   110  H    0.056967
   111  C    0.109792
   112  C   -0.169750
   113  H    0.062578
   114  C    0.117773
   115  C    0.402455
   116  C   -0.621380
   117  C   -0.478087
   118  H    0.114497
   119  H    0.128196
   120  H    0.134063
   121  C   -0.521945
   122  H    0.124726
   123  H    0.118315
   124  H    0.121747
   125  C   -0.521053
   126  H    0.131327
   127  H    0.120586
   128  H    0.127922
 Sum of Mulliken atomic charges =   0.00000
 Mulliken charges with hydrogens summed into heavy atoms:
              1
     1  Si   0.533050
     2  C   -0.064420
     3  C    0.097272
     4  C   -0.095207
     6  C    0.096451
     7  C   -0.026082
     9  C   -0.006152
    11  C   -0.002561
    13  C   -0.025195
    15  C    0.109782
    16  C   -0.107160
    18  C    0.117721
    19  C    0.402373
    20  C   -0.621280
    21  C   -0.101342
    25  C   -0.157148
    29  C   -0.141229
    33  Si   0.551361
    34  C   -0.067124
    35  C    0.098350
    36  C   -0.096766
    38  C    0.099612
    39  C   -0.031385
    41  C   -0.004622
    43  C   -0.000007
    45  C   -0.041206
    47  C    0.114080
    48  C   -0.099897
    50  C    0.116342
    51  C    0.407911
    52  C   -0.625421
    53  C   -0.139451
    57  C   -0.151087
    61  C   -0.139561
    65  Si   0.551351
    66  C   -0.067176
    67  C    0.098365
    68  C   -0.096737
    70  C    0.099635
    71  C   -0.031382
    73  C   -0.004634
    75  C   -0.000009
    77  C   -0.041198
    79  C    0.114067
    80  C   -0.099836
    82  C    0.116243
    83  C    0.407794
    84  C   -0.625295
    85  C   -0.139462
    89  C   -0.151102
    93  C   -0.139552
    97  Si   0.533063
    98  C   -0.064377
    99  C    0.097233
   100  C   -0.095188
   102  C    0.096437
   103  C   -0.026093
   105  C   -0.006134
   107  C   -0.002572
   109  C   -0.025203
   111  C    0.109792
   112  C   -0.107172
   114  C    0.117773
   115  C    0.402455
   116  C   -0.621380
   117  C   -0.101330
   121  C   -0.157157
   125  C   -0.141218
 Sum of Mulliken charges with hydrogens summed into heavy atoms =   0.00000
 Electronic spatial extent (au):  <R**2>=          91308.9476
 Charge=              0.0000 electrons
 Dipole moment (field-independent basis, Debye):
    X=              0.0005    Y=             -0.0005    Z=              0.0001  Tot=              0.0007
 Quadrupole moment (field-independent basis, Debye-Ang):
   XX=           -372.7537   YY=           -364.2138   ZZ=           -426.1386
   XY=            -12.6961   XZ=            -18.0458   YZ=             -5.6494
 Traceless Quadrupole moment (field-independent basis, Debye-Ang):
   XX=             14.9484   YY=             23.4882   ZZ=            -38.4366
   XY=            -12.6961   XZ=            -18.0458   YZ=             -5.6494
 Octapole moment (field-independent basis, Debye-Ang**2):
  XXX=             -0.0095  YYY=             -0.0116  ZZZ=             -0.0025  XYY=              0.0217
  XXY=             -0.0278  XXZ=              0.0248  XZZ=             -0.0025  YZZ=             -0.0019
  YYZ=             -0.0001  XYZ=             -0.0002
 Hexadecapole moment (field-independent basis, Debye-Ang**3):
 XXXX=         -82357.8652 YYYY=         -28099.4288 ZZZZ=          -4979.3830 XXXY=          -1188.3065
 XXXZ=          -1501.1541 YYYX=            358.8024 YYYZ=           -354.2692 ZZZX=           -166.1667
 ZZZY=            139.1658 XXYY=         -18046.5874 XXZZ=         -16363.2428 YYZZ=          -5935.8353
 XXYZ=           -304.4239 YYXZ=           -342.4015 ZZXY=           -134.0190
 N-N= 1.009146339365D+04 E-N=-2.867742087092D+04  KE= 3.618005089706D+03
 Leave Link  601 at Fri Jan  6 02:18:28 2012, MaxMem= 1073741824 cpu:       8.4
 (Enter /apps/gaussian/g09/g09/l9999.exe)
 1\1\GINC-CX1-1-8-4\SP\RTD-B3LYP-FC\6-31G(d,p)\C64H60Si4\JMF02\06-Jan-2
 012\0\\#p scf=verytight b3lyp/6-31g(d,p) td(singlets,nstates=25)\\CSD 
 ENTRY k01071\\0,1\Si,0,9.4118847,10.36196215,8.66643619\C,0,7.45586038
 ,7.41039591,5.97347302\C,0,8.22032446,6.21507133,5.87145431\C,0,9.3991
 1189,6.03036596,6.61803795\H,0,9.68598932,6.72114773,7.20437223\C,0,10
 .15408934,4.87258156,6.5252246\C,0,11.363489,4.6989474,7.27124246\H,0,
 11.65798086,5.38907381,7.85375691\C,0,12.09385517,3.5616789,7.15674082
 \H,0,12.89280557,3.4626282,7.66054656\C,0,11.6728799,2.51587232,6.2883
 4955\H,0,12.18791766,1.72015591,6.22635364\C,0,10.54607095,2.64175807,
 5.55232483\H,0,10.28815673,1.93735696,4.96925337\C,0,9.73477884,3.8215
 1799,5.63696897\C,0,8.57423746,3.98941249,4.89822601\H,0,8.29365978,3.
 29194818,4.31695697\C,0,7.79281469,5.16314289,4.98218665\C,0,7.9174899
 4,8.43898512,6.85229461\C,0,8.39889068,9.26263932,7.59389834\C,0,10.45
 271453,11.44440437,7.58129421\H,0,11.1123279,10.89404775,7.10961127\H,
 0,10.9168749,12.10872244,8.13235196\H,0,9.8816481,11.90063829,6.929870
 59\C,0,10.53534303,9.26827771,9.66182643\H,0,9.99987391,8.71998634,10.
 27311883\H,0,11.15720872,9.82230077,10.17861992\H,0,11.04153476,8.6850
 8067,9.059066\C,0,8.31855776,11.37181239,9.77123377\H,0,7.74160265,11.
 94541398,9.22432883\H,0,8.8716957,11.92874064,10.35917539\H,0,7.762672
 08,10.7744644,10.31516437\Si,0,4.65372962,2.38000067,1.52929558\C,0,6.
 60975394,5.33156691,4.22225875\C,0,5.84528986,6.5268915,4.32427746\C,0
 ,4.66650243,6.71159686,3.57769382\H,0,4.379625,6.02081509,2.99135954\C
 ,0,3.91152498,7.86938126,3.67050716\C,0,2.70212532,8.04301543,2.924489
 3\H,0,2.40763346,7.35288901,2.34197486\C,0,1.97175915,9.18028392,3.038
 99094\H,0,1.17280875,9.27933462,2.53518521\C,0,2.39273442,10.2260905,3
 .90738222\H,0,1.87769666,11.02180692,3.96937813\C,0,3.51954337,10.1002
 0475,4.64340693\H,0,3.77745759,10.80460586,5.2264784\C,0,4.33083548,8.
 92044483,4.55876279\C,0,5.49137686,8.75255034,5.29750575\H,0,5.7719545
 4,9.45001465,5.87877479\C,0,6.27279963,7.57881993,5.21354512\C,0,6.148
 12438,4.3029777,3.34343715\C,0,5.66672364,3.4793235,2.60183343\C,0,3.6
 1289979,1.29755845,2.61443755\H,0,2.95328642,1.84791507,3.0861205\H,0,
 3.14873942,0.63324038,2.06337981\H,0,4.18396622,0.84132453,3.26586118\
 C,0,3.53027129,3.47368511,0.53390534\H,0,4.06574041,4.02197649,-0.0773
 8706\H,0,2.9084056,2.91966206,0.01711185\H,0,3.02407956,4.05688215,1.1
 3666577\C,0,5.74705656,1.37015044,0.42449799\H,0,6.32401167,0.79654885
 ,0.97140294\H,0,5.19391862,0.81322218,-0.16344362\H,0,6.30294224,1.967
 49842,-0.1194326\Si,0,10.2979,20.4692,8.66644\C,0,8.34191,17.5176,5.97
 347\C,0,9.10637,16.3223,5.87145\C,0,10.2852,16.1376,6.61804\H,0,10.572
 ,16.8284,7.20437\C,0,11.0401,14.9798,6.52522\C,0,12.2495,14.8062,7.271
 24\H,0,12.544,15.4963,7.85376\C,0,12.9799,13.6689,7.15674\H,0,13.7789,
 13.5699,7.66055\C,0,12.5589,12.6231,6.28835\H,0,13.074,11.8274,6.22635
 \C,0,11.4321,12.749,5.55232\H,0,11.1742,12.0446,4.96925\C,0,10.6208,13
 .9288,5.63697\C,0,9.46028,14.0966,4.89823\H,0,9.17971,13.3992,4.31696\
 C,0,8.67886,15.2704,4.98219\C,0,8.80354,18.5462,6.85229\C,0,9.28494,19
 .3699,7.5939\C,0,11.3388,21.5516,7.58129\H,0,11.9984,21.0013,7.10961\H
 ,0,11.8029,22.216,8.13235\H,0,10.7677,22.0079,6.92987\C,0,11.4214,19.3
 755,9.66183\H,0,10.8859,18.8272,10.2731\H,0,12.0433,19.9295,10.1786\H,
 0,11.9276,18.7923,9.05907\C,0,9.2046,21.479,9.77123\H,0,8.62765,22.052
 7,9.22433\H,0,9.75774,22.036,10.3592\H,0,8.64872,20.8817,10.3152\Si,0,
 5.53978,12.4872,1.5293\C,0,7.4958,15.4388,4.22226\C,0,6.73134,16.6341,
 4.32428\C,0,5.55255,16.8188,3.57769\H,0,5.26567,16.1281,2.99136\C,0,4.
 79757,17.9766,3.67051\C,0,3.58817,18.1503,2.92449\H,0,3.29368,17.4601,
 2.34197\C,0,2.85781,19.2875,3.03899\H,0,2.05885,19.3866,2.53519\C,0,3.
 27878,20.3333,3.90738\H,0,2.76374,21.129,3.96938\C,0,4.40559,20.2074,4
 .64341\H,0,4.6635,20.9118,5.22648\C,0,5.21688,19.0277,4.55876\C,0,6.37
 742,18.8598,5.29751\H,0,6.658,19.5573,5.87877\C,0,7.15885,17.6861,5.21
 355\C,0,7.03417,14.4102,3.34344\C,0,6.55277,13.5866,2.60183\C,0,4.4989
 5,11.4048,2.61444\H,0,3.83933,11.9552,3.08612\H,0,4.03479,10.7405,2.06
 338\H,0,5.07001,10.9486,3.26586\C,0,4.41632,13.5809,0.533905\H,0,4.951
 79,14.1292,-0.0773871\H,0,3.79445,13.0269,0.0171119\H,0,3.91013,14.164
 1,1.13667\C,0,6.6331,11.4774,0.424498\H,0,7.21006,10.9038,0.971403\H,0
 ,6.07996,10.9205,-0.163444\H,0,7.18899,12.0747,-0.119433\\Version=EM64
 L-G09RevA.02\State=1-A\HF=-3632.2697658\RMSD=5.103e-09\PG=C01 [X(C64H6
 0Si4)]\\@


 QED = W**5 (WHICH WAS WHAT WE WANTED)
 Job cpu time:  1 days 16 hours 24 minutes 39.6 seconds.
 File lengths (MBytes):  RWF=   9046 Int=      0 D2E=      0 Chk=   1484 Scr=      1
 Normal termination of Gaussian 09 at Fri Jan  6 02:18:31 2012.
