 Entering Gaussian System, Link 0=g03
 Input=k01094_tes_Tv3.com
 Output=k01094_tes_Tv3.log
 Initial command:
 /apps/gaussian/g09/g09/l1.exe /tmp/pbs.509046.cx1b/Gau-827.inp -scrdir=/tmp/pbs.509046.cx1b/
 Entering Link 1 = /apps/gaussian/g09/g09/l1.exe PID=       835.
  
 Copyright (c) 1988,1990,1992,1993,1995,1998,2003,2009, Gaussian, Inc.
                  All Rights Reserved.
  
 This is part of the Gaussian(R) 09 program.  It is based on
 the Gaussian(R) 03 system (copyright 2003, Gaussian, Inc.),
 the Gaussian(R) 98 system (copyright 1998, Gaussian, Inc.),
 the Gaussian(R) 94 system (copyright 1995, Gaussian, Inc.),
 the Gaussian 92(TM) system (copyright 1992, Gaussian, Inc.),
 the Gaussian 90(TM) system (copyright 1990, Gaussian, Inc.),
 the Gaussian 88(TM) system (copyright 1988, Gaussian, Inc.),
 the Gaussian 86(TM) system (copyright 1986, Carnegie Mellon
 University), and the Gaussian 82(TM) system (copyright 1983,
 Carnegie Mellon University). Gaussian is a federally registered
 trademark of Gaussian, Inc.
  
 This software contains proprietary and confidential information,
 including trade secrets, belonging to Gaussian, Inc.
  
 This software is provided under written license and may be
 used, copied, transmitted, or stored only in accord with that
 written license.
  
 The following legend is applicable only to US Government
 contracts under FAR:
  
                    RESTRICTED RIGHTS LEGEND
  
 Use, reproduction and disclosure by the US Government is
 subject to restrictions as set forth in subparagraphs (a)
 and (c) of the Commercial Computer Software - Restricted
 Rights clause in FAR 52.227-19.
  
 Gaussian, Inc.
 340 Quinnipiac St., Bldg. 40, Wallingford CT 06492
  
  
 ---------------------------------------------------------------
 Warning -- This program may not be used in any manner that
 competes with the business of Gaussian, Inc. or will provide
 assistance to any competitor of Gaussian, Inc.  The licensee
 of this program is prohibited from giving any competitor of
 Gaussian, Inc. access to this program.  By using this program,
 the user acknowledges that Gaussian, Inc. is engaged in the
 business of creating and licensing software in the field of
 computational chemistry and represents and warrants to the
 licensee that it is not a competitor of Gaussian, Inc. and that
 it will not use this program in any manner prohibited above.
 ---------------------------------------------------------------
  

 Cite this work as:
 Gaussian 09, Revision A.02,
 M. J. Frisch, G. W. Trucks, H. B. Schlegel, G. E. Scuseria, 
 M. A. Robb, J. R. Cheeseman, G. Scalmani, V. Barone, B. Mennucci, 
 G. A. Petersson, H. Nakatsuji, M. Caricato, X. Li, H. P. Hratchian, 
 A. F. Izmaylov, J. Bloino, G. Zheng, J. L. Sonnenberg, M. Hada, 
 M. Ehara, K. Toyota, R. Fukuda, J. Hasegawa, M. Ishida, T. Nakajima, 
 Y. Honda, O. Kitao, H. Nakai, T. Vreven, J. A. Montgomery, Jr., 
 J. E. Peralta, F. Ogliaro, M. Bearpark, J. J. Heyd, E. Brothers, 
 K. N. Kudin, V. N. Staroverov, R. Kobayashi, J. Normand, 
 K. Raghavachari, A. Rendell, J. C. Burant, S. S. Iyengar, J. Tomasi, 
 M. Cossi, N. Rega, J. M. Millam, M. Klene, J. E. Knox, J. B. Cross, 
 V. Bakken, C. Adamo, J. Jaramillo, R. Gomperts, R. E. Stratmann, 
 O. Yazyev, A. J. Austin, R. Cammi, C. Pomelli, J. W. Ochterski, 
 R. L. Martin, K. Morokuma, V. G. Zakrzewski, G. A. Voth, 
 P. Salvador, J. J. Dannenberg, S. Dapprich, A. D. Daniels, 
 O. Farkas, J. B. Foresman, J. V. Ortiz, J. Cioslowski, 
 and D. J. Fox, Gaussian, Inc., Wallingford CT, 2009.
 
 ******************************************
 Gaussian 09:  EM64L-G09RevA.02 11-Jun-2009
                 5-Jan-2012 
 ******************************************
 %chk=k01094_tes_Tv3.chk
 %Mem=8Gb
 %nproc=8
 Will use up to    8 processors via shared memory.
 ---------------------------------------------------------
 #p scf=verytight b3lyp/6-31g(d,p) td(singlets,nstates=25)
 ---------------------------------------------------------
 1/38=1/1;
 2/12=2,17=6,18=5,40=1/2;
 3/5=1,6=6,7=101,11=2,16=1,25=1,30=1,74=-5/1,2,8,3;
 4//1;
 5/5=2,17=3,38=5/2;
 8/6=1,10=2,108=25/1;
 9/41=25,42=1,48=1/14;
 6/7=2,8=2,9=2,10=2/1;
 99/5=1,9=1/99;
 Leave Link    1 at Thu Jan  5 21:29:22 2012, MaxMem= 1073741824 cpu:       0.2
 (Enter /apps/gaussian/g09/g09/l101.exe)
 ----------------
 CSD ENTRY k01094
 ----------------
 Symbolic Z-matrix:
 Charge =  0 Multiplicity = 1
 Si(PDBName=Si1,ResName=UNK,ResNum=1)  7.67676   4.94253   2.12464 
 Si(PDBName=Si2,ResName=UNK,ResNum=1)  4.28162   9.81254   11.99769 
 C(PDBName=C1,ResName=UNK,ResNum=1)  5.88831   5.96627   6.07011 
 C(PDBName=C2,ResName=UNK,ResNum=1)  6.09047   5.24232   7.26812 
 C(PDBName=C3,ResName=UNK,ResNum=1)  6.62881   3.94071   7.27218 
 H(PDBName=H3,ResName=UNK,ResNum=1)  6.8715    3.54304   6.44484 
 C(PDBName=C4,ResName=UNK,ResNum=1)  6.81589   3.22362   8.43886 
 C(PDBName=C5,ResName=UNK,ResNum=1)  7.35926   1.90045   8.45262 
 H(PDBName=H5,ResName=UNK,ResNum=1)  7.59858   1.48605   7.63231 
 C(PDBName=C6,ResName=UNK,ResNum=1)  7.54025   1.22634   9.61403 
 H(PDBName=H6,ResName=UNK,ResNum=1)  7.90027   0.34685   9.59742 
 C(PDBName=C7,ResName=UNK,ResNum=1)  7.19697   1.82693   10.85695 
 H(PDBName=H7,ResName=UNK,ResNum=1)  7.33393   1.34816   11.66574 
 C(PDBName=C8,ResName=UNK,ResNum=1)  6.67611   3.07412   10.89545 
 H(PDBName=H8,ResName=UNK,ResNum=1)  6.44429   3.45592   11.73444 
 C(PDBName=C9,ResName=UNK,ResNum=1)  6.46769   3.83281   9.69765 
 C(PDBName=C10,ResName=UNK,ResNum=1)  5.95395   5.11586   9.71255 
 H(PDBName=H10,ResName=UNK,ResNum=1)  5.73473   5.51544   10.54618 
 C(PDBName=C11,ResName=UNK,ResNum=1)  5.74489   5.84868   8.53039 
 C(PDBName=C12,ResName=UNK,ResNum=1)  5.24618   7.18179   8.55055 
 C(PDBName=C13,ResName=UNK,ResNum=1)  5.00798   7.89329   7.34628 
 C(PDBName=C14,ResName=UNK,ResNum=1)  4.52458   9.21207   7.33206 
 H(PDBName=H14,ResName=UNK,ResNum=1)  4.33632   9.638     8.15951 
 C(PDBName=C15,ResName=UNK,ResNum=1)  4.31255   9.91646   6.15489 
 C(PDBName=C16,ResName=UNK,ResNum=1)  3.87263   11.27182   6.13855 
 H(PDBName=H16,ResName=UNK,ResNum=1)  3.73088   11.72707   6.95999 
 C(PDBName=C17,ResName=UNK,ResNum=1)  3.6506    11.92653   4.96813 
 H(PDBName=H17,ResName=UNK,ResNum=1)  3.36908   12.83304   4.9795 
 C(PDBName=C18,ResName=UNK,ResNum=1)  3.83999   11.25774   3.72182 
 H(PDBName=H18,ResName=UNK,ResNum=1)  3.65971   11.71531   2.90944 
 C(PDBName=C19,ResName=UNK,ResNum=1)  4.27263   9.97909   3.69053 
 H(PDBName=H19,ResName=UNK,ResNum=1)  4.39687   9.54989   2.85174 
 C(PDBName=C20,ResName=UNK,ResNum=1)  4.55025   9.25348   4.89848 
 C(PDBName=C21,ResName=UNK,ResNum=1)  5.04013   7.95889   4.89214 
 H(PDBName=H21,ResName=UNK,ResNum=1)  5.20269   7.52954   4.05971 
 C(PDBName=C22,ResName=UNK,ResNum=1)  5.30535   7.25979   6.08358 
 C(PDBName=C23,ResName=UNK,ResNum=1)  6.36652   5.44971   4.81807 
 C(PDBName=C24,ResName=UNK,ResNum=1)  6.83687   5.1281    3.74769 
 C(PDBName=C25,ResName=UNK,ResNum=1)  9.51188   5.09836   2.38159 
 H(PDBName=H25A,ResName=UNK,ResNum=1)  9.7299    6.01747   2.64161 
 H(PDBName=H25B,ResName=UNK,ResNum=1)  9.97885   4.8752    1.54801 
 H(PDBName=H25C,ResName=UNK,ResNum=1)  9.79559   4.48169   3.08845 
 C(PDBName=C26,ResName=UNK,ResNum=1)  7.29153   3.27432   1.39351 
 H(PDBName=H26A,ResName=UNK,ResNum=1)  7.53957   2.57366   2.03136 
 H(PDBName=H26B,ResName=UNK,ResNum=1)  7.79948   3.15685   0.56418 
 H(PDBName=H26C,ResName=UNK,ResNum=1)  6.33218   3.21705   1.20039 
 C(PDBName=C27,ResName=UNK,ResNum=1)  7.03028   6.3347    1.02103 
 C(PDBName=C28,ResName=UNK,ResNum=1)  7.64491   6.20556  -0.37887 
 H(PDBName=H28A,ResName=UNK,ResNum=1)  7.35521   5.36196  -0.78551 
 H(PDBName=H28B,ResName=UNK,ResNum=1)  8.62235   6.21528  -0.30782 
 H(PDBName=H28C,ResName=UNK,ResNum=1)  7.3488    6.95484  -0.93585 
 C(PDBName=C29,ResName=UNK,ResNum=1)  5.50431   6.25659   0.9048 
 H(PDBName=H29A,ResName=UNK,ResNum=1)  5.10472   6.34196   1.79536 
 H(PDBName=H29B,ResName=UNK,ResNum=1)  5.25031   5.39435   0.51387 
 H(PDBName=H29C,ResName=UNK,ResNum=1)  5.18284   6.9829    0.33099 
 C(PDBName=C30,ResName=UNK,ResNum=1)  7.41699   7.70518   1.60464 
 H(PDBName=H30A,ResName=UNK,ResNum=1)  7.04793   8.41628   1.0405 
 H(PDBName=H30B,ResName=UNK,ResNum=1)  8.39419   7.78435   1.63324 
 H(PDBName=H30C,ResName=UNK,ResNum=1)  7.05622   7.78707   2.51227 
 C(PDBName=C31,ResName=UNK,ResNum=1)  4.98373   7.86219   9.78719 
 C(PDBName=C32,ResName=UNK,ResNum=1)  4.7402    8.54041   10.76398 
 C(PDBName=C33,ResName=UNK,ResNum=1)  2.56019   10.38794   11.59481 
 H(PDBName=H33A,ResName=UNK,ResNum=1)  2.53225   10.71107   10.66964 
 H(PDBName=H33B,ResName=UNK,ResNum=1)  2.30868   11.1141   12.20212 
 H(PDBName=H33C,ResName=UNK,ResNum=1)  1.93364   9.64148   11.69988 
 C(PDBName=C34,ResName=UNK,ResNum=1)  4.29441   9.0848    13.70565 
 H(PDBName=H34A,ResName=UNK,ResNum=1)  3.7156    8.29456   13.728 
 H(PDBName=H34B,ResName=UNK,ResNum=1)  3.96457   9.74991   14.3464 
 H(PDBName=H34C,ResName=UNK,ResNum=1)  5.20951   8.82621   13.9441 
 C(PDBName=C35,ResName=UNK,ResNum=1)  5.52526   11.22465   11.83927 
 C(PDBName=C36,ResName=UNK,ResNum=1)  6.91715   10.75602   12.27193 
 H(PDBName=H36A,ResName=UNK,ResNum=1)  7.18794   9.98877   11.72615 
 H(PDBName=H36B,ResName=UNK,ResNum=1)  6.89477   10.4925   13.21623 
 H(PDBName=H36C,ResName=UNK,ResNum=1)  7.56054   11.48525   12.15225 
 C(PDBName=C37,ResName=UNK,ResNum=1)  5.11022   12.40094   12.73139 
 H(PDBName=H37A,ResName=UNK,ResNum=1)  5.05139   12.10008   13.66155 
 H(PDBName=H37B,ResName=UNK,ResNum=1)  4.2367    12.73902   12.44182 
 H(PDBName=H37C,ResName=UNK,ResNum=1)  5.77668   13.11602   12.66038 
 C(PDBName=C38,ResName=UNK,ResNum=1)  5.59985   11.71008   10.37952 
 H(PDBName=H38A,ResName=UNK,ResNum=1)  6.23134   12.45698   10.3159 
 H(PDBName=H38B,ResName=UNK,ResNum=1)  4.71248   12.00675   10.08825 
 H(PDBName=H38C,ResName=UNK,ResNum=1)  5.90357   10.97556   9.80712 
 Si(PDBName=Si1,ResName=UNK,ResNum=1)  9.09257   10.4099   17.6365 
 Si(PDBName=Si2,ResName=UNK,ResNum=1)  5.69742   15.2799   27.5096 
 C(PDBName=C1,ResName=UNK,ResNum=1)  7.30411   11.4336   21.582 
 C(PDBName=C2,ResName=UNK,ResNum=1)  7.50627   10.7096   22.78 
 C(PDBName=C3,ResName=UNK,ResNum=1)  8.04461   9.40803   22.784 
 H(PDBName=H3,ResName=UNK,ResNum=1)  8.2873    9.01036   21.9567 
 C(PDBName=C4,ResName=UNK,ResNum=1)  8.2317    8.69094   23.9507 
 C(PDBName=C5,ResName=UNK,ResNum=1)  8.77507   7.36778   23.9645 
 H(PDBName=H5,ResName=UNK,ResNum=1)  9.01438   6.95337   23.1442 
 C(PDBName=C6,ResName=UNK,ResNum=1)  8.95605   6.69366   25.1259 
 H(PDBName=H6,ResName=UNK,ResNum=1)  9.31608   5.81417   25.1093 
 C(PDBName=C7,ResName=UNK,ResNum=1)  8.61278   7.29425   26.3688 
 H(PDBName=H7,ResName=UNK,ResNum=1)  8.74973   6.81548   27.1776 
 C(PDBName=C8,ResName=UNK,ResNum=1)  8.09192   8.54145   26.4073 
 H(PDBName=H8,ResName=UNK,ResNum=1)  7.86009   8.92324   27.2463 
 C(PDBName=C9,ResName=UNK,ResNum=1)  7.8835    9.30013   25.2095 
 C(PDBName=C10,ResName=UNK,ResNum=1)  7.36975   10.5832   25.2244 
 H(PDBName=H10,ResName=UNK,ResNum=1)  7.15053   10.9828   26.058 
 C(PDBName=C11,ResName=UNK,ResNum=1)  7.16069   11.316    24.0423 
 C(PDBName=C12,ResName=UNK,ResNum=1)  6.66199   12.6491   24.0624 
 C(PDBName=C13,ResName=UNK,ResNum=1)  6.42379   13.3606   22.8581 
 C(PDBName=C14,ResName=UNK,ResNum=1)  5.94039   14.6794   22.8439 
 H(PDBName=H14,ResName=UNK,ResNum=1)  5.75213   15.1053   23.6714 
 C(PDBName=C15,ResName=UNK,ResNum=1)  5.72835   15.3838   21.6668 
 C(PDBName=C16,ResName=UNK,ResNum=1)  5.28843   16.7391   21.6504 
 H(PDBName=H16,ResName=UNK,ResNum=1)  5.14669   17.1944   22.4719 
 C(PDBName=C17,ResName=UNK,ResNum=1)  5.06641   17.3938   20.48 
 H(PDBName=H17,ResName=UNK,ResNum=1)  4.78489   18.3004   20.4914 
 C(PDBName=C18,ResName=UNK,ResNum=1)  5.2558    16.7251   19.2337 
 H(PDBName=H18,ResName=UNK,ResNum=1)  5.07551   17.1826   18.4213 
 C(PDBName=C19,ResName=UNK,ResNum=1)  5.68844   15.4464   19.2024 
 H(PDBName=H19,ResName=UNK,ResNum=1)  5.81268   15.0172   18.3636 
 C(PDBName=C20,ResName=UNK,ResNum=1)  5.96605   14.7208   20.4103 
 C(PDBName=C21,ResName=UNK,ResNum=1)  6.45593   13.4262   20.404 
 H(PDBName=H21,ResName=UNK,ResNum=1)  6.6185    12.9969   19.5716 
 C(PDBName=C22,ResName=UNK,ResNum=1)  6.72116   12.7271   21.5954 
 C(PDBName=C23,ResName=UNK,ResNum=1)  7.78233   10.917    20.3299 
 C(PDBName=C24,ResName=UNK,ResNum=1)  8.25268   10.5954   19.2596 
 C(PDBName=C25,ResName=UNK,ResNum=1)  10.9277   10.5657   17.8935 
 H(PDBName=H25A,ResName=UNK,ResNum=1)  11.1457   11.4848   18.1535 
 H(PDBName=H25B,ResName=UNK,ResNum=1)  11.3947   10.3425   17.0599 
 H(PDBName=H25C,ResName=UNK,ResNum=1)  11.2114   9.94902   18.6003 
 C(PDBName=C26,ResName=UNK,ResNum=1)  8.70733   8.74164   16.9054 
 H(PDBName=H26A,ResName=UNK,ResNum=1)  8.95538   8.04098   17.5432 
 H(PDBName=H26B,ResName=UNK,ResNum=1)  9.21528   8.62417   16.076 
 H(PDBName=H26C,ResName=UNK,ResNum=1)  7.74798   8.68437   16.7123 
 C(PDBName=C27,ResName=UNK,ResNum=1)  8.44608   11.802    16.5329 
 C(PDBName=C28,ResName=UNK,ResNum=1)  9.06071   11.6729   15.133 
 H(PDBName=H28A,ResName=UNK,ResNum=1)  8.77102   10.8293   14.7264 
 H(PDBName=H28B,ResName=UNK,ResNum=1)  10.0382   11.6826   15.204 
 H(PDBName=H28C,ResName=UNK,ResNum=1)  8.7646    12.4222   14.576 
 C(PDBName=C29,ResName=UNK,ResNum=1)  6.92011   11.7239   16.4167 
 H(PDBName=H29A,ResName=UNK,ResNum=1)  6.52052   11.8093   17.3072 
 H(PDBName=H29B,ResName=UNK,ResNum=1)  6.66612   10.8617   16.0257 
 H(PDBName=H29C,ResName=UNK,ResNum=1)  6.59865   12.4502   15.8429 
 C(PDBName=C30,ResName=UNK,ResNum=1)  8.83279   13.1725   17.1165 
 H(PDBName=H30A,ResName=UNK,ResNum=1)  8.46373   13.8836   16.5524 
 H(PDBName=H30B,ResName=UNK,ResNum=1)  9.80999   13.2517   17.1451 
 H(PDBName=H30C,ResName=UNK,ResNum=1)  8.47203   13.2544   18.0241 
 C(PDBName=C31,ResName=UNK,ResNum=1)  6.39954   13.3295   25.2991 
 C(PDBName=C32,ResName=UNK,ResNum=1)  6.156     14.0077   26.2758 
 C(PDBName=C33,ResName=UNK,ResNum=1)  3.976     15.8553   27.1067 
 H(PDBName=H33A,ResName=UNK,ResNum=1)  3.94805   16.1784   26.1815 
 H(PDBName=H33B,ResName=UNK,ResNum=1)  3.72448   16.5814   27.714 
 H(PDBName=H33C,ResName=UNK,ResNum=1)  3.34945   15.1088   27.2117 
 C(PDBName=C34,ResName=UNK,ResNum=1)  5.71021   14.5521   29.2175 
 H(PDBName=H34A,ResName=UNK,ResNum=1)  5.1314    13.7619   29.2399 
 H(PDBName=H34B,ResName=UNK,ResNum=1)  5.38037   15.2172   29.8583 
 H(PDBName=H34C,ResName=UNK,ResNum=1)  6.62532   14.2935   29.456 
 C(PDBName=C35,ResName=UNK,ResNum=1)  6.94106   16.692    27.3511 
 C(PDBName=C36,ResName=UNK,ResNum=1)  8.33296   16.2233   27.7838 
 H(PDBName=H36A,ResName=UNK,ResNum=1)  8.60374   15.4561   27.238 
 H(PDBName=H36B,ResName=UNK,ResNum=1)  8.31058   15.9598   28.7281 
 H(PDBName=H36C,ResName=UNK,ResNum=1)  8.97635   16.9526   27.6641 
 C(PDBName=C37,ResName=UNK,ResNum=1)  6.52603   17.8683   28.2433 
 H(PDBName=H37A,ResName=UNK,ResNum=1)  6.46719   17.5674   29.1734 
 H(PDBName=H37B,ResName=UNK,ResNum=1)  5.6525    18.2063   27.9537 
 H(PDBName=H37C,ResName=UNK,ResNum=1)  7.19249   18.5833   28.1722 
 C(PDBName=C38,ResName=UNK,ResNum=1)  7.01565   17.1774   25.8914 
 H(PDBName=H38A,ResName=UNK,ResNum=1)  7.64715   17.9243   25.8278 
 H(PDBName=H38B,ResName=UNK,ResNum=1)  6.12828   17.4741   25.6001 
 H(PDBName=H38C,ResName=UNK,ResNum=1)  7.31938   16.4429   25.319 
 
 NAtoms=    164 NQM=    164 NQMF=      0 NMic=      0 NMicF=      0 NTot=    164.
                    Isotopes and Nuclear Properties:
 (Nuclear quadrupole moments (NQMom) in fm**2, nuclear magnetic moments (NMagM)
  in nuclear magnetons)

  Atom         1           2           3           4           5           6           7           8           9          10
 IAtWgt=          28          28          12          12          12           1          12          12           1          12
 AtmWgt=  27.9769284  27.9769284  12.0000000  12.0000000  12.0000000   1.0078250  12.0000000  12.0000000   1.0078250  12.0000000
 NucSpn=           0           0           0           0           0           1           0           0           1           0
 AtZEff=   0.0000000   0.0000000   0.0000000   0.0000000   0.0000000   0.0000000   0.0000000   0.0000000   0.0000000   0.0000000
 NQMom=    0.0000000   0.0000000   0.0000000   0.0000000   0.0000000   0.0000000   0.0000000   0.0000000   0.0000000   0.0000000
 NMagM=    0.0000000   0.0000000   0.0000000   0.0000000   0.0000000   2.7928460   0.0000000   0.0000000   2.7928460   0.0000000

  Atom        11          12          13          14          15          16          17          18          19          20
 IAtWgt=           1          12           1          12           1          12          12           1          12          12
 AtmWgt=   1.0078250  12.0000000   1.0078250  12.0000000   1.0078250  12.0000000  12.0000000   1.0078250  12.0000000  12.0000000
 NucSpn=           1           0           1           0           1           0           0           1           0           0
 AtZEff=   0.0000000   0.0000000   0.0000000   0.0000000   0.0000000   0.0000000   0.0000000   0.0000000   0.0000000   0.0000000
 NQMom=    0.0000000   0.0000000   0.0000000   0.0000000   0.0000000   0.0000000   0.0000000   0.0000000   0.0000000   0.0000000
 NMagM=    2.7928460   0.0000000   2.7928460   0.0000000   2.7928460   0.0000000   0.0000000   2.7928460   0.0000000   0.0000000

  Atom        21          22          23          24          25          26          27          28          29          30
 IAtWgt=          12          12           1          12          12           1          12           1          12           1
 AtmWgt=  12.0000000  12.0000000   1.0078250  12.0000000  12.0000000   1.0078250  12.0000000   1.0078250  12.0000000   1.0078250
 NucSpn=           0           0           1           0           0           1           0           1           0           1
 AtZEff=   0.0000000   0.0000000   0.0000000   0.0000000   0.0000000   0.0000000   0.0000000   0.0000000   0.0000000   0.0000000
 NQMom=    0.0000000   0.0000000   0.0000000   0.0000000   0.0000000   0.0000000   0.0000000   0.0000000   0.0000000   0.0000000
 NMagM=    0.0000000   0.0000000   2.7928460   0.0000000   0.0000000   2.7928460   0.0000000   2.7928460   0.0000000   2.7928460

  Atom        31          32          33          34          35          36          37          38          39          40
 IAtWgt=          12           1          12          12           1          12          12          12          12           1
 AtmWgt=  12.0000000   1.0078250  12.0000000  12.0000000   1.0078250  12.0000000  12.0000000  12.0000000  12.0000000   1.0078250
 NucSpn=           0           1           0           0           1           0           0           0           0           1
 AtZEff=   0.0000000   0.0000000   0.0000000   0.0000000   0.0000000   0.0000000   0.0000000   0.0000000   0.0000000   0.0000000
 NQMom=    0.0000000   0.0000000   0.0000000   0.0000000   0.0000000   0.0000000   0.0000000   0.0000000   0.0000000   0.0000000
 NMagM=    0.0000000   2.7928460   0.0000000   0.0000000   2.7928460   0.0000000   0.0000000   0.0000000   0.0000000   2.7928460

  Atom        41          42          43          44          45          46          47          48          49          50
 IAtWgt=           1           1          12           1           1           1          12          12           1           1
 AtmWgt=   1.0078250   1.0078250  12.0000000   1.0078250   1.0078250   1.0078250  12.0000000  12.0000000   1.0078250   1.0078250
 NucSpn=           1           1           0           1           1           1           0           0           1           1
 AtZEff=   0.0000000   0.0000000   0.0000000   0.0000000   0.0000000   0.0000000   0.0000000   0.0000000   0.0000000   0.0000000
 NQMom=    0.0000000   0.0000000   0.0000000   0.0000000   0.0000000   0.0000000   0.0000000   0.0000000   0.0000000   0.0000000
 NMagM=    2.7928460   2.7928460   0.0000000   2.7928460   2.7928460   2.7928460   0.0000000   0.0000000   2.7928460   2.7928460

  Atom        51          52          53          54          55          56          57          58          59          60
 IAtWgt=           1          12           1           1           1          12           1           1           1          12
 AtmWgt=   1.0078250  12.0000000   1.0078250   1.0078250   1.0078250  12.0000000   1.0078250   1.0078250   1.0078250  12.0000000
 NucSpn=           1           0           1           1           1           0           1           1           1           0
 AtZEff=   0.0000000   0.0000000   0.0000000   0.0000000   0.0000000   0.0000000   0.0000000   0.0000000   0.0000000   0.0000000
 NQMom=    0.0000000   0.0000000   0.0000000   0.0000000   0.0000000   0.0000000   0.0000000   0.0000000   0.0000000   0.0000000
 NMagM=    2.7928460   0.0000000   2.7928460   2.7928460   2.7928460   0.0000000   2.7928460   2.7928460   2.7928460   0.0000000

  Atom        61          62          63          64          65          66          67          68          69          70
 IAtWgt=          12          12           1           1           1          12           1           1           1          12
 AtmWgt=  12.0000000  12.0000000   1.0078250   1.0078250   1.0078250  12.0000000   1.0078250   1.0078250   1.0078250  12.0000000
 NucSpn=           0           0           1           1           1           0           1           1           1           0
 AtZEff=   0.0000000   0.0000000   0.0000000   0.0000000   0.0000000   0.0000000   0.0000000   0.0000000   0.0000000   0.0000000
 NQMom=    0.0000000   0.0000000   0.0000000   0.0000000   0.0000000   0.0000000   0.0000000   0.0000000   0.0000000   0.0000000
 NMagM=    0.0000000   0.0000000   2.7928460   2.7928460   2.7928460   0.0000000   2.7928460   2.7928460   2.7928460   0.0000000

  Atom        71          72          73          74          75          76          77          78          79          80
 IAtWgt=          12           1           1           1          12           1           1           1          12           1
 AtmWgt=  12.0000000   1.0078250   1.0078250   1.0078250  12.0000000   1.0078250   1.0078250   1.0078250  12.0000000   1.0078250
 NucSpn=           0           1           1           1           0           1           1           1           0           1
 AtZEff=   0.0000000   0.0000000   0.0000000   0.0000000   0.0000000   0.0000000   0.0000000   0.0000000   0.0000000   0.0000000
 NQMom=    0.0000000   0.0000000   0.0000000   0.0000000   0.0000000   0.0000000   0.0000000   0.0000000   0.0000000   0.0000000
 NMagM=    0.0000000   2.7928460   2.7928460   2.7928460   0.0000000   2.7928460   2.7928460   2.7928460   0.0000000   2.7928460

  Atom        81          82          83          84          85          86          87          88          89          90
 IAtWgt=           1           1          28          28          12          12          12           1          12          12
 AtmWgt=   1.0078250   1.0078250  27.9769284  27.9769284  12.0000000  12.0000000  12.0000000   1.0078250  12.0000000  12.0000000
 NucSpn=           1           1           0           0           0           0           0           1           0           0
 AtZEff=   0.0000000   0.0000000   0.0000000   0.0000000   0.0000000   0.0000000   0.0000000   0.0000000   0.0000000   0.0000000
 NQMom=    0.0000000   0.0000000   0.0000000   0.0000000   0.0000000   0.0000000   0.0000000   0.0000000   0.0000000   0.0000000
 NMagM=    2.7928460   2.7928460   0.0000000   0.0000000   0.0000000   0.0000000   0.0000000   2.7928460   0.0000000   0.0000000

  Atom        91          92          93          94          95          96          97          98          99         100
 IAtWgt=           1          12           1          12           1          12           1          12          12           1
 AtmWgt=   1.0078250  12.0000000   1.0078250  12.0000000   1.0078250  12.0000000   1.0078250  12.0000000  12.0000000   1.0078250
 NucSpn=           1           0           1           0           1           0           1           0           0           1
 AtZEff=   0.0000000   0.0000000   0.0000000   0.0000000   0.0000000   0.0000000   0.0000000   0.0000000   0.0000000   0.0000000
 NQMom=    0.0000000   0.0000000   0.0000000   0.0000000   0.0000000   0.0000000   0.0000000   0.0000000   0.0000000   0.0000000
 NMagM=    2.7928460   0.0000000   2.7928460   0.0000000   2.7928460   0.0000000   2.7928460   0.0000000   0.0000000   2.7928460

  Atom       101         102         103         104         105         106         107         108         109         110
 IAtWgt=          12          12          12          12           1          12          12           1          12           1
 AtmWgt=  12.0000000  12.0000000  12.0000000  12.0000000   1.0078250  12.0000000  12.0000000   1.0078250  12.0000000   1.0078250
 NucSpn=           0           0           0           0           1           0           0           1           0           1
 AtZEff=   0.0000000   0.0000000   0.0000000   0.0000000   0.0000000   0.0000000   0.0000000   0.0000000   0.0000000   0.0000000
 NQMom=    0.0000000   0.0000000   0.0000000   0.0000000   0.0000000   0.0000000   0.0000000   0.0000000   0.0000000   0.0000000
 NMagM=    0.0000000   0.0000000   0.0000000   0.0000000   2.7928460   0.0000000   0.0000000   2.7928460   0.0000000   2.7928460

  Atom       111         112         113         114         115         116         117         118         119         120
 IAtWgt=          12           1          12           1          12          12           1          12          12          12
 AtmWgt=  12.0000000   1.0078250  12.0000000   1.0078250  12.0000000  12.0000000   1.0078250  12.0000000  12.0000000  12.0000000
 NucSpn=           0           1           0           1           0           0           1           0           0           0
 AtZEff=   0.0000000   0.0000000   0.0000000   0.0000000   0.0000000   0.0000000   0.0000000   0.0000000   0.0000000   0.0000000
 NQMom=    0.0000000   0.0000000   0.0000000   0.0000000   0.0000000   0.0000000   0.0000000   0.0000000   0.0000000   0.0000000
 NMagM=    0.0000000   2.7928460   0.0000000   2.7928460   0.0000000   0.0000000   2.7928460   0.0000000   0.0000000   0.0000000

  Atom       121         122         123         124         125         126         127         128         129         130
 IAtWgt=          12           1           1           1          12           1           1           1          12          12
 AtmWgt=  12.0000000   1.0078250   1.0078250   1.0078250  12.0000000   1.0078250   1.0078250   1.0078250  12.0000000  12.0000000
 NucSpn=           0           1           1           1           0           1           1           1           0           0
 AtZEff=   0.0000000   0.0000000   0.0000000   0.0000000   0.0000000   0.0000000   0.0000000   0.0000000   0.0000000   0.0000000
 NQMom=    0.0000000   0.0000000   0.0000000   0.0000000   0.0000000   0.0000000   0.0000000   0.0000000   0.0000000   0.0000000
 NMagM=    0.0000000   2.7928460   2.7928460   2.7928460   0.0000000   2.7928460   2.7928460   2.7928460   0.0000000   0.0000000

  Atom       131         132         133         134         135         136         137         138         139         140
 IAtWgt=           1           1           1          12           1           1           1          12           1           1
 AtmWgt=   1.0078250   1.0078250   1.0078250  12.0000000   1.0078250   1.0078250   1.0078250  12.0000000   1.0078250   1.0078250
 NucSpn=           1           1           1           0           1           1           1           0           1           1
 AtZEff=   0.0000000   0.0000000   0.0000000   0.0000000   0.0000000   0.0000000   0.0000000   0.0000000   0.0000000   0.0000000
 NQMom=    0.0000000   0.0000000   0.0000000   0.0000000   0.0000000   0.0000000   0.0000000   0.0000000   0.0000000   0.0000000
 NMagM=    2.7928460   2.7928460   2.7928460   0.0000000   2.7928460   2.7928460   2.7928460   0.0000000   2.7928460   2.7928460

  Atom       141         142         143         144         145         146         147         148         149         150
 IAtWgt=           1          12          12          12           1           1           1          12           1           1
 AtmWgt=   1.0078250  12.0000000  12.0000000  12.0000000   1.0078250   1.0078250   1.0078250  12.0000000   1.0078250   1.0078250
 NucSpn=           1           0           0           0           1           1           1           0           1           1
 AtZEff=   0.0000000   0.0000000   0.0000000   0.0000000   0.0000000   0.0000000   0.0000000   0.0000000   0.0000000   0.0000000
 NQMom=    0.0000000   0.0000000   0.0000000   0.0000000   0.0000000   0.0000000   0.0000000   0.0000000   0.0000000   0.0000000
 NMagM=    2.7928460   0.0000000   0.0000000   0.0000000   2.7928460   2.7928460   2.7928460   0.0000000   2.7928460   2.7928460

  Atom       151         152         153         154         155         156         157         158         159         160
 IAtWgt=           1          12          12           1           1           1          12           1           1           1
 AtmWgt=   1.0078250  12.0000000  12.0000000   1.0078250   1.0078250   1.0078250  12.0000000   1.0078250   1.0078250   1.0078250
 NucSpn=           1           0           0           1           1           1           0           1           1           1
 AtZEff=   0.0000000   0.0000000   0.0000000   0.0000000   0.0000000   0.0000000   0.0000000   0.0000000   0.0000000   0.0000000
 NQMom=    0.0000000   0.0000000   0.0000000   0.0000000   0.0000000   0.0000000   0.0000000   0.0000000   0.0000000   0.0000000
 NMagM=    2.7928460   0.0000000   0.0000000   2.7928460   2.7928460   2.7928460   0.0000000   2.7928460   2.7928460   2.7928460

  Atom       161         162         163         164
 IAtWgt=          12           1           1           1
 AtmWgt=  12.0000000   1.0078250   1.0078250   1.0078250
 NucSpn=           0           1           1           1
 AtZEff=   0.0000000   0.0000000   0.0000000   0.0000000
 NQMom=    0.0000000   0.0000000   0.0000000   0.0000000
 NMagM=    0.0000000   2.7928460   2.7928460   2.7928460
 Leave Link  101 at Thu Jan  5 21:29:22 2012, MaxMem= 1073741824 cpu:       0.7
 (Enter /apps/gaussian/g09/g09/l202.exe)
 Stoichiometry    C76H84Si4
 Framework group  C1[X(C76H84Si4)]
 Deg. of freedom   486
 Full point group                 C1      NOp   1
 Largest Abelian subgroup         C1      NOp   1
 Largest concise Abelian subgroup C1      NOp   1
                         Standard orientation:                         
 ---------------------------------------------------------------------
 Center     Atomic      Atomic             Coordinates (Angstroms)
 Number     Number       Type             X           Y           Z
 ---------------------------------------------------------------------
      1         14           0      -13.598047    0.991110    1.302012
      2         14           0       -2.770558   -1.452125   -1.782989
      3          6           0       -9.594512    0.691029   -0.620232
      4          6           0       -8.704162    1.771595   -0.819875
      5          6           0       -9.121671    3.112601   -0.713026
      6          1           0      -10.026750    3.294007   -0.490677
      7          6           0       -8.258967    4.172370   -0.920364
      8          6           0       -8.674425    5.537237   -0.816750
      9          1           0       -9.578629    5.734575   -0.603697
     10          6           0       -7.802421    6.555072   -1.015906
     11          1           0       -8.102850    7.453985   -0.944509
     12          6           0       -6.440985    6.286883   -1.328904
     13          1           0       -5.836532    7.007662   -1.460178
     14          6           0       -6.001194    5.013279   -1.441957
     15          1           0       -5.090146    4.853239   -1.660582
     16          6           0       -6.879853    3.899745   -1.237580
     17          6           0       -6.449997    2.589356   -1.329626
     18          1           0       -5.537626    2.416061   -1.530181
     19          6           0       -7.322643    1.503439   -1.135980
     20          6           0       -6.870548    0.155143   -1.199244
     21          6           0       -7.772073   -0.928371   -1.036472
     22          6           0       -7.356683   -2.269324   -1.084912
     23          1           0       -6.440336   -2.457578   -1.247369
     24          6           0       -8.234299   -3.329397   -0.903488
     25          6           0       -7.807280   -4.688967   -0.899476
     26          1           0       -6.885305   -4.889545   -1.008300
     27          6           0       -8.695547   -5.706080   -0.743645
     28          1           0       -8.388565   -6.604290   -0.732111
     29          6           0      -10.087796   -5.429909   -0.595961
     30          1           0      -10.704074   -6.147465   -0.511482
     31          6           0      -10.534068   -4.155711   -0.576624
     32          1           0      -11.464143   -3.989539   -0.473850
     33          6           0       -9.632626   -3.045269   -0.707134
     34          6           0      -10.059029   -1.729980   -0.642291
     35          1           0      -10.982000   -1.548843   -0.504380
     36          6           0       -9.164593   -0.652377   -0.774019
     37          6           0      -10.932158    0.926930   -0.153144
     38          6           0      -12.033506    1.042418    0.340909
     39          6           0      -13.247887    1.547760    3.041402
     40          1           0      -12.687407    0.882536    3.492237
     41          1           0      -14.093331    1.647218    3.529308
     42          1           0      -12.781282    2.409304    3.020259
     43          6           0      -14.858970    2.122402    0.529912
     44          1           0      -14.486657    3.025546    0.459086
     45          1           0      -15.663618    2.142824    1.088230
     46          1           0      -15.089230    1.791801   -0.363737
     47          6           0      -14.188358   -0.804671    1.275168
     48          6           0      -15.530739   -0.913328    2.010269
     49          1           0      -16.206007   -0.384460    1.535670
     50          1           0      -15.430817   -0.571814    2.923459
     51          1           0      -15.812046   -1.851060    2.039435
     52          6           0      -14.370499   -1.283442   -0.169059
     53          1           0      -13.515715   -1.220062   -0.643796
     54          1           0      -15.036172   -0.721154   -0.617967
     55          1           0      -14.676152   -2.214404   -0.168451
     56          6           0      -13.166364   -1.715701    1.977966
     57          1           0      -13.469473   -2.646143    1.927749
     58          1           0      -13.083051   -1.449144    2.918186
     59          1           0      -12.295491   -1.630945    1.536324
     60          6           0       -5.485725   -0.158885   -1.410785
     61          6           0       -4.345646   -0.544459   -1.568784
     62          6           0       -3.008706   -2.666491   -3.170544
     63          1           0       -3.771721   -3.247827   -2.968103
     64          1           0       -2.200523   -3.210944   -3.269591
     65          1           0       -3.179923   -2.180052   -4.004133
     66          6           0       -1.407261   -0.275122   -2.233507
     67          1           0       -1.669601    0.240914   -3.023995
     68          1           0       -0.590516   -0.781258   -2.429696
     69          1           0       -1.241899    0.335786   -1.484773
     70          6           0       -2.406912   -2.340343   -0.156756
     71          6           0       -2.114862   -1.322592    0.949170
     72          1           0       -2.878364   -0.716179    1.045125
     73          1           0       -1.315329   -0.805361    0.714965
     74          1           0       -1.962684   -1.792526    1.795373
     75          6           0       -1.184261   -3.253008   -0.311524
     76          1           0       -0.411695   -2.719113   -0.589524
     77          1           0       -1.369738   -3.936424   -0.989562
     78          1           0       -0.990325   -3.687631    0.545236
     79          6           0       -3.615405   -3.195991    0.266899
     80          1           0       -3.404883   -3.668427    1.099470
     81          1           0       -3.816828   -3.847714   -0.436639
     82          1           0       -4.391952   -2.615831    0.407638
     83         14           0        2.884484    1.364543    2.139399
     84         14           0       13.712015   -1.078677   -0.945614
     85          6           0        6.888033    1.064498    0.217137
     86          6           0        7.778352    2.145108    0.017481
     87          6           0        7.360808    3.486058    0.124351
     88          1           0        6.455759    3.667479    0.346696
     89          6           0        8.223531    4.545837   -0.082986
     90          6           0        7.808104    5.910710    0.020622
     91          1           0        6.903911    6.108051    0.233668
     92          6           0        8.680102    6.928549   -0.178541
     93          1           0        8.379679    7.827464   -0.107138
     94          6           0       10.041518    6.660355   -0.491529
     95          1           0       10.645979    7.381137   -0.622808
     96          6           0       10.481314    5.386744   -0.604580
     97          1           0       11.392366    5.226705   -0.823212
     98          6           0        9.602655    4.273215   -0.400204
     99          6           0       10.032516    2.962804   -0.492250
    100          1           0       10.944859    2.789484   -0.692790
    101          6           0        9.159912    1.876926   -0.298617
    102          6           0        9.611951    0.528623   -0.361873
    103          6           0        8.710400   -0.554900   -0.199097
    104          6           0        9.125810   -1.895869   -0.247532
    105          1           0       10.042200   -2.084080   -0.410003
    106          6           0        8.248272   -2.955926   -0.066119
    107          6           0        8.675210   -4.315464   -0.062114
    108          1           0        9.597256   -4.516068   -0.170929
    109          6           0        7.786960   -5.332563    0.093716
    110          1           0        8.093997   -6.230840    0.105269
    111          6           0        6.394752   -5.056461    0.241420
    112          1           0        5.778429   -5.773969    0.325876
    113          6           0        5.948453   -3.782226    0.260747
    114          1           0        5.018368   -3.616055    0.363519
    115          6           0        6.849851   -2.671805    0.130242
    116          6           0        6.423480   -1.356504    0.195074
    117          1           0        5.500553   -1.175402    0.333003
    118          6           0        7.317882   -0.278906    0.063356
    119          6           0        5.550313    1.300415    0.684226
    120          6           0        4.449052    1.415922    1.178271
    121          6           0        3.234681    1.921238    3.878790
    122          1           0        3.795135    1.256008    4.329600
    123          1           0        2.389206    2.020730    4.366714
    124          1           0        3.701225    2.782769    3.857635
    125          6           0        1.623570    2.495886    1.367280
    126          1           0        1.995839    3.399015    1.296462
    127          1           0        0.818853    2.516284    1.925607
    128          1           0        1.393331    2.165286    0.473628
    129          6           0        2.294163   -0.431180    2.112533
    130          6           0        0.951791   -0.539870    2.847640
    131          1           0        0.276554   -0.010986    2.373044
    132          1           0        1.051657   -0.198335    3.760878
    133          1           0        0.670470   -1.477626    2.876819
    134          6           0        2.112043   -0.909945    0.668302
    135          1           0        2.966788   -0.846617    0.193585
    136          1           0        1.446322   -0.347716    0.219421
    137          1           0        1.806402   -1.840900    0.668913
    138          6           0        3.316151   -1.342229    2.815338
    139          1           0        3.013078   -2.272660    2.765115
    140          1           0        3.399470   -1.075700    3.755567
    141          1           0        4.186997   -1.257488    2.373706
    142          6           0       10.996832    0.214612   -0.573420
    143          6           0       12.136820   -0.170969   -0.731419
    144          6           0       13.473847   -2.293041   -2.333165
    145          1           0       12.710793   -2.874365   -2.130732
    146          1           0       14.281997   -2.837445   -2.432231
    147          1           0       13.302555   -1.806587   -3.166756
    148          6           0       15.075239    0.098364   -1.396139
    149          1           0       14.812956    0.614386   -2.186625
    150          1           0       15.892022   -0.407744   -1.592344
    151          1           0       15.240640    0.709293   -0.647413
    152          6           0       14.075581   -1.966907    0.680625
    153          6           0       14.367643   -0.949083    1.786531
    154          1           0       13.604146   -0.342719    1.882502
    155          1           0       15.167186   -0.431863    1.552329
    156          1           0       14.519828   -1.419081    2.632757
    157          6           0       15.298315   -2.879552    0.525856
    158          1           0       16.070804   -2.345642    0.247844
    159          1           0       15.112784   -3.562909   -0.152206
    160          1           0       15.492139   -3.314136    1.382604
    161          6           0       12.867123   -2.822513    1.104264
    162          1           0       13.077670   -3.294940    1.936838
    163          1           0       12.665681   -3.474269    0.400739
    164          1           0       12.090589   -2.242369    1.245014
 ---------------------------------------------------------------------
 Rotational constants (GHZ):      0.0418279      0.0053008      0.0048844
 Leave Link  202 at Thu Jan  5 21:29:22 2012, MaxMem= 1073741824 cpu:       0.0
 (Enter /apps/gaussian/g09/g09/l301.exe)
 Standard basis: 6-31G(d,p) (6D, 7F)
 Ernie: Thresh=  0.10000D-02 Tol=  0.10000D-05 Strict=F.
 There are  1636 symmetry adapted basis functions of A   symmetry.
 Integral buffers will be    131072 words long.
 Raffenetti 2 integral format.
 Two-electron integral symmetry is turned on.
  1636 basis functions,  2924 primitive gaussians,  1636 cartesian basis functions
   298 alpha electrons      298 beta electrons
       nuclear repulsion energy     12329.9169133420 Hartrees.
 IExCor=  402 DFT=T Ex+Corr=B3LYP ExCW=0 ScaHFX=  0.200000
 ScaDFX=  0.800000  0.720000  1.000000  0.810000 ScalE2=  1.000000  1.000000
 IRadAn=      0 IRanWt=     -1 IRanGd=            0 ICorTp=0
 NAtoms=  164 NActive=  164 NUniq=  164 SFac= 7.50D-01 NAtFMM=   80 NAOKFM=T Big=T
 Leave Link  301 at Thu Jan  5 21:29:22 2012, MaxMem= 1073741824 cpu:       0.3
 (Enter /apps/gaussian/g09/g09/l302.exe)
 NPDir=0 NMtPBC=     1 NCelOv=     1 NCel=       1 NClECP=     1 NCelD=      1
         NCelK=      1 NCelE2=     1 NClLst=     1 CellRange=     0.0.
 One-electron integrals computed using PRISM.
 NBasis=  1636 RedAO= T  NBF=  1636
 NBsUse=  1636 1.00D-06 NBFU=  1636
 Precomputing XC quadrature grid using
 IXCGrd= 2 IRadAn=           0 IRanWt=          -1 IRanGd=           0 AccXCQ= 1.00D-10.
 NRdTot=   10889 NPtTot=     1398896 NUsed=     1477264 NTot=     1477296
 NSgBfM=   981   983   983   991   997 NAtAll=   164   135.
 Leave Link  302 at Thu Jan  5 21:29:34 2012, MaxMem= 1073741824 cpu:      96.5
 (Enter /apps/gaussian/g09/g09/l308.exe)
 Leave Link  308 at Thu Jan  5 21:29:35 2012, MaxMem= 1073741824 cpu:       5.5
 (Enter /apps/gaussian/g09/g09/l303.exe)
 DipDrv:  MaxL=1.
 Leave Link  303 at Thu Jan  5 21:29:35 2012, MaxMem= 1073741824 cpu:       3.6
 (Enter /apps/gaussian/g09/g09/l401.exe)
 Harris functional with IExCor=  402 diagonalized for initial guess.
 ExpMin= 7.78D-02 ExpMax= 1.61D+04 ExpMxC= 2.43D+03 IAcc=2 IRadAn=         0 AccDes= 0.00D+00
 HarFok:  IExCor=  402 AccDes= 0.00D+00 IRadAn=         0 IDoV= 1
 ScaDFX=  1.000000  1.000000  1.000000  1.000000
 FoFCou: FMM=F IPFlag=           0 FMFlag=      100000 FMFlg1=        2001
         NFxFlg=           0 DoJE=T BraDBF=F KetDBF=T FulRan=T
         Omega=  0.000000  0.000000  1.000000  0.000000  0.000000 ICntrl=     500 IOpCl=  0
         NMat0=    1 NMatS0=    1 NMatT0=    0 NMatD0=    1 NMtDS0=    0 NMtDT0=    0
         I1Cent=           4 NGrid=           0.
 Petite list used in FoFCou.
 Harris En= -4105.75291341322    
 Initial guess orbital symmetries:
       Occupied  (A) (A) (A) (A) (A) (A) (A) (A) (A) (A) (A) (A)
                 (A) (A) (A) (A) (A) (A) (A) (A) (A) (A) (A) (A)
                 (A) (A) (A) (A) (A) (A) (A) (A) (A) (A) (A) (A)
                 (A) (A) (A) (A) (A) (A) (A) (A) (A) (A) (A) (A)
                 (A) (A) (A) (A) (A) (A) (A) (A) (A) (A) (A) (A)
                 (A) (A) (A) (A) (A) (A) (A) (A) (A) (A) (A) (A)
                 (A) (A) (A) (A) (A) (A) (A) (A) (A) (A) (A) (A)
                 (A) (A) (A) (A) (A) (A) (A) (A) (A) (A) (A) (A)
                 (A) (A) (A) (A) (A) (A) (A) (A) (A) (A) (A) (A)
                 (A) (A) (A) (A) (A) (A) (A) (A) (A) (A) (A) (A)
                 (A) (A) (A) (A) (A) (A) (A) (A) (A) (A) (A) (A)
                 (A) (A) (A) (A) (A) (A) (A) (A) (A) (A) (A) (A)
                 (A) (A) (A) (A) (A) (A) (A) (A) (A) (A) (A) (A)
                 (A) (A) (A) (A) (A) (A) (A) (A) (A) (A) (A) (A)
                 (A) (A) (A) (A) (A) (A) (A) (A) (A) (A) (A) (A)
                 (A) (A) (A) (A) (A) (A) (A) (A) (A) (A) (A) (A)
                 (A) (A) (A) (A) (A) (A) (A) (A) (A) (A) (A) (A)
                 (A) (A) (A) (A) (A) (A) (A) (A) (A) (A) (A) (A)
                 (A) (A) (A) (A) (A) (A) (A) (A) (A) (A) (A) (A)
                 (A) (A) (A) (A) (A) (A) (A) (A) (A) (A) (A) (A)
                 (A) (A) (A) (A) (A) (A) (A) (A) (A) (A) (A) (A)
                 (A) (A) (A) (A) (A) (A) (A) (A) (A) (A) (A) (A)
                 (A) (A) (A) (A) (A) (A) (A) (A) (A) (A) (A) (A)
                 (A) (A) (A) (A) (A) (A) (A) (A) (A) (A) (A) (A)
                 (A) (A) (A) (A) (A) (A) (A) (A) (A) (A)
       Virtual   (A) (A) (A) (A) (A) (A) (A) (A) (A) (A) (A) (A)
                 (A) (A) (A) (A) (A) (A) (A) (A) (A) (A) (A) (A)
                 (A) (A) (A) (A) (A) (A) (A) (A) (A) (A) (A) (A)
                 (A) (A) (A) (A) (A) (A) (A) (A) (A) (A) (A) (A)
                 (A) (A) (A) (A) (A) (A) (A) (A) (A) (A) (A) (A)
                 (A) (A) (A) (A) (A) (A) (A) (A) (A) (A) (A) (A)
                 (A) (A) (A) (A) (A) (A) (A) (A) (A) (A) (A) (A)
                 (A) (A) (A) (A) (A) (A) (A) (A) (A) (A) (A) (A)
                 (A) (A) (A) (A) (A) (A) (A) (A) (A) (A) (A) (A)
                 (A) (A) (A) (A) (A) (A) (A) (A) (A) (A) (A) (A)
                 (A) (A) (A) (A) (A) (A) (A) (A) (A) (A) (A) (A)
                 (A) (A) (A) (A) (A) (A) (A) (A) (A) (A) (A) (A)
                 (A) (A) (A) (A) (A) (A) (A) (A) (A) (A) (A) (A)
                 (A) (A) (A) (A) (A) (A) (A) (A) (A) (A) (A) (A)
                 (A) (A) (A) (A) (A) (A) (A) (A) (A) (A) (A) (A)
                 (A) (A) (A) (A) (A) (A) (A) (A) (A) (A) (A) (A)
                 (A) (A) (A) (A) (A) (A) (A) (A) (A) (A) (A) (A)
                 (A) (A) (A) (A) (A) (A) (A) (A) (A) (A) (A) (A)
                 (A) (A) (A) (A) (A) (A) (A) (A) (A) (A) (A) (A)
                 (A) (A) (A) (A) (A) (A) (A) (A) (A) (A) (A) (A)
                 (A) (A) (A) (A) (A) (A) (A) (A) (A) (A) (A) (A)
                 (A) (A) (A) (A) (A) (A) (A) (A) (A) (A) (A) (A)
                 (A) (A) (A) (A) (A) (A) (A) (A) (A) (A) (A) (A)
                 (A) (A) (A) (A) (A) (A) (A) (A) (A) (A) (A) (A)
                 (A) (A) (A) (A) (A) (A) (A) (A) (A) (A) (A) (A)
                 (A) (A) (A) (A) (A) (A) (A) (A) (A) (A) (A) (A)
                 (A) (A) (A) (A) (A) (A) (A) (A) (A) (A) (A) (A)
                 (A) (A) (A) (A) (A) (A) (A) (A) (A) (A) (A) (A)
                 (A) (A) (A) (A) (A) (A) (A) (A) (A) (A) (A) (A)
                 (A) (A) (A) (A) (A) (A) (A) (A) (A) (A) (A) (A)
                 (A) (A) (A) (A) (A) (A) (A) (A) (A) (A) (A) (A)
                 (A) (A) (A) (A) (A) (A) (A) (A) (A) (A) (A) (A)
                 (A) (A) (A) (A) (A) (A) (A) (A) (A) (A) (A) (A)
                 (A) (A) (A) (A) (A) (A) (A) (A) (A) (A) (A) (A)
                 (A) (A) (A) (A) (A) (A) (A) (A) (A) (A) (A) (A)
                 (A) (A) (A) (A) (A) (A) (A) (A) (A) (A) (A) (A)
                 (A) (A) (A) (A) (A) (A) (A) (A) (A) (A) (A) (A)
                 (A) (A) (A) (A) (A) (A) (A) (A) (A) (A) (A) (A)
                 (A) (A) (A) (A) (A) (A) (A) (A) (A) (A) (A) (A)
                 (A) (A) (A) (A) (A) (A) (A) (A) (A) (A) (A) (A)
                 (A) (A) (A) (A) (A) (A) (A) (A) (A) (A) (A) (A)
                 (A) (A) (A) (A) (A) (A) (A) (A) (A) (A) (A) (A)
                 (A) (A) (A) (A) (A) (A) (A) (A) (A) (A) (A) (A)
                 (A) (A) (A) (A) (A) (A) (A) (A) (A) (A) (A) (A)
                 (A) (A) (A) (A) (A) (A) (A) (A) (A) (A) (A) (A)
                 (A) (A) (A) (A) (A) (A) (A) (A) (A) (A) (A) (A)
                 (A) (A) (A) (A) (A) (A) (A) (A) (A) (A) (A) (A)
                 (A) (A) (A) (A) (A) (A) (A) (A) (A) (A) (A) (A)
                 (A) (A) (A) (A) (A) (A) (A) (A) (A) (A) (A) (A)
                 (A) (A) (A) (A) (A) (A) (A) (A) (A) (A) (A) (A)
                 (A) (A) (A) (A) (A) (A) (A) (A) (A) (A) (A) (A)
                 (A) (A) (A) (A) (A) (A) (A) (A) (A) (A) (A) (A)
                 (A) (A) (A) (A) (A) (A) (A) (A) (A) (A) (A) (A)
                 (A) (A) (A) (A) (A) (A) (A) (A) (A) (A) (A) (A)
                 (A) (A) (A) (A) (A) (A) (A) (A) (A) (A) (A) (A)
                 (A) (A) (A) (A) (A) (A) (A) (A) (A) (A) (A) (A)
                 (A) (A) (A) (A) (A) (A) (A) (A) (A) (A) (A) (A)
                 (A) (A) (A) (A) (A) (A) (A) (A) (A) (A) (A) (A)
                 (A) (A) (A) (A) (A) (A) (A) (A) (A) (A) (A) (A)
                 (A) (A) (A) (A) (A) (A) (A) (A) (A) (A) (A) (A)
                 (A) (A) (A) (A) (A) (A) (A) (A) (A) (A) (A) (A)
                 (A) (A) (A) (A) (A) (A) (A) (A) (A) (A) (A) (A)
                 (A) (A) (A) (A) (A) (A) (A) (A) (A) (A) (A) (A)
                 (A) (A) (A) (A) (A) (A) (A) (A) (A) (A) (A) (A)
                 (A) (A) (A) (A) (A) (A) (A) (A) (A) (A) (A) (A)
                 (A) (A) (A) (A) (A) (A) (A) (A) (A) (A) (A) (A)
                 (A) (A) (A) (A) (A) (A) (A) (A) (A) (A) (A) (A)
                 (A) (A) (A) (A) (A) (A) (A) (A) (A) (A) (A) (A)
                 (A) (A) (A) (A) (A) (A) (A) (A) (A) (A) (A) (A)
                 (A) (A) (A) (A) (A) (A) (A) (A) (A) (A) (A) (A)
                 (A) (A) (A) (A) (A) (A) (A) (A) (A) (A) (A) (A)
                 (A) (A) (A) (A) (A) (A) (A) (A) (A) (A) (A) (A)
                 (A) (A) (A) (A) (A) (A) (A) (A) (A) (A) (A) (A)
                 (A) (A) (A) (A) (A) (A) (A) (A) (A) (A) (A) (A)
                 (A) (A) (A) (A) (A) (A) (A) (A) (A) (A) (A) (A)
                 (A) (A) (A) (A) (A) (A) (A) (A) (A) (A) (A) (A)
                 (A) (A) (A) (A) (A) (A) (A) (A) (A) (A) (A) (A)
                 (A) (A) (A) (A) (A) (A) (A) (A) (A) (A) (A) (A)
                 (A) (A) (A) (A) (A) (A) (A) (A) (A) (A) (A) (A)
                 (A) (A) (A) (A) (A) (A) (A) (A) (A) (A) (A) (A)
                 (A) (A) (A) (A) (A) (A) (A) (A) (A) (A) (A) (A)
                 (A) (A) (A) (A) (A) (A) (A) (A) (A) (A) (A) (A)
                 (A) (A) (A) (A) (A) (A) (A) (A) (A) (A) (A) (A)
                 (A) (A) (A) (A) (A) (A) (A) (A) (A) (A) (A) (A)
                 (A) (A) (A) (A) (A) (A) (A) (A) (A) (A) (A) (A)
                 (A) (A) (A) (A) (A) (A) (A) (A) (A) (A) (A) (A)
                 (A) (A) (A) (A) (A) (A) (A) (A) (A) (A) (A) (A)
                 (A) (A) (A) (A) (A) (A) (A) (A) (A) (A) (A) (A)
                 (A) (A) (A) (A) (A) (A) (A) (A) (A) (A) (A) (A)
                 (A) (A) (A) (A) (A) (A) (A) (A) (A) (A) (A) (A)
                 (A) (A) (A) (A) (A) (A) (A) (A) (A) (A) (A) (A)
                 (A) (A) (A) (A) (A) (A) (A) (A) (A) (A) (A) (A)
                 (A) (A) (A) (A) (A) (A) (A) (A) (A) (A) (A) (A)
                 (A) (A) (A) (A) (A) (A) (A) (A) (A) (A) (A) (A)
                 (A) (A) (A) (A) (A) (A) (A) (A) (A) (A) (A) (A)
                 (A) (A) (A) (A) (A) (A) (A) (A) (A) (A) (A) (A)
                 (A) (A) (A) (A) (A) (A) (A) (A) (A) (A) (A) (A)
                 (A) (A) (A) (A) (A) (A) (A) (A) (A) (A) (A) (A)
                 (A) (A) (A) (A) (A) (A) (A) (A) (A) (A) (A) (A)
                 (A) (A) (A) (A) (A) (A) (A) (A) (A) (A) (A) (A)
                 (A) (A) (A) (A) (A) (A) (A) (A) (A) (A) (A) (A)
                 (A) (A) (A) (A) (A) (A) (A) (A) (A) (A) (A) (A)
                 (A) (A) (A) (A) (A) (A) (A) (A) (A) (A) (A) (A)
                 (A) (A) (A) (A) (A) (A) (A) (A) (A) (A) (A) (A)
                 (A) (A) (A) (A) (A) (A) (A) (A) (A) (A) (A) (A)
                 (A) (A) (A) (A) (A) (A) (A) (A) (A) (A) (A) (A)
                 (A) (A) (A) (A) (A) (A) (A) (A) (A) (A) (A) (A)
                 (A) (A) (A) (A) (A) (A) (A) (A) (A) (A) (A) (A)
                 (A) (A) (A) (A) (A) (A) (A) (A) (A) (A) (A) (A)
                 (A) (A) (A) (A) (A) (A) (A) (A) (A) (A) (A) (A)
                 (A) (A) (A) (A) (A) (A) (A) (A) (A) (A) (A) (A)
                 (A) (A) (A) (A) (A) (A)
 The electronic state of the initial guess is 1-A.
 Leave Link  401 at Thu Jan  5 21:29:56 2012, MaxMem= 1073741824 cpu:     166.9
 (Enter /apps/gaussian/g09/g09/l502.exe)
 Closed shell SCF:
 Requested convergence on RMS density matrix=1.00D-08 within 128 cycles.
 Requested convergence on MAX density matrix=1.00D-06.
 Requested convergence on             energy=1.00D-06.
 No special actions if energy rises.
 Using DIIS extrapolation, IDIIS=  1040.
 Integral symmetry usage will be decided dynamically.
      1475775 words used for storage of precomputed grid.
 IEnd=     9548853 IEndB=     9548853 NGot=  1073741824 MDV=  1066887744
 LenX=  1066887744 LenY=  1064209612
 Fock matrices will be formed incrementally for  20 cycles.
 Integral accuracy reduced to 1.0D-05 until final iterations.

 Cycle   1  Pass 0  IDiag  1:
 FoFCou: FMM=T IPFlag=           0 FMFlag=      100000 FMFlg1=        2001
         NFxFlg=           0 DoJE=F BraDBF=F KetDBF=F FulRan=T
         Omega=  0.000000  0.000000  1.000000  0.000000  0.000000 ICntrl=       0 IOpCl=  0
         NMat0=    1 NMatS0=    1 NMatT0=    0 NMatD0=    1 NMtDS0=    0 NMtDT0=    0
         I1Cent=           0 NGrid=           0.
 Symmetry not used in FoFCou.
 FMM levels:  10  Number of levels for PrismC:   9
 E= -4100.20616224400    
 DIIS: error= 3.90D-02 at cycle   1 NSaved=   1.
 NSaved= 1 IEnMin= 1 EnMin= -4100.20616224400     IErMin= 1 ErrMin= 3.90D-02
 ErrMax= 3.90D-02 EMaxC= 1.00D-01 BMatC= 3.44D+00 BMatP= 3.44D+00
 IDIUse=3 WtCom= 6.10D-01 WtEn= 3.90D-01
 Coeff-Com:  0.100D+01
 Coeff-En:   0.100D+01
 Coeff:      0.100D+01
 Gap=     0.082 Goal=   None    Shift=    0.000
 GapD=    0.082 DampG=0.500 DampE=0.500 DampFc=0.2500 IDamp=-1.
 Damping current iteration by 2.50D-01
 RMSDP=2.74D-03 MaxDP=2.21D-01              OVMax= 2.70D-01

 Cycle   2  Pass 0  IDiag  1:
 RMSU=  4.59D-04    CP:  9.74D-01
 E= -4101.50181886167     Delta-E=       -1.295656617665 Rises=F Damp=T
 DIIS: error= 2.39D-02 at cycle   2 NSaved=   2.
 NSaved= 2 IEnMin= 2 EnMin= -4101.50181886167     IErMin= 2 ErrMin= 2.39D-02
 ErrMax= 2.39D-02 EMaxC= 1.00D-01 BMatC= 9.31D-01 BMatP= 3.44D+00
 IDIUse=3 WtCom= 7.61D-01 WtEn= 2.39D-01
 Coeff-Com: -0.924D+00 0.192D+01
 Coeff-En:   0.000D+00 0.100D+01
 Coeff:     -0.702D+00 0.170D+01
 Gap=     0.096 Goal=   None    Shift=    0.000
 RMSDP=1.27D-03 MaxDP=1.10D-01 DE=-1.30D+00 OVMax= 2.58D-01

 Cycle   3  Pass 0  IDiag  1:
 RMSU=  6.09D-04    CP:  9.15D-01  2.22D+00
 E= -4103.38164587681     Delta-E=       -1.879827015146 Rises=F Damp=F
 DIIS: error= 2.38D-02 at cycle   3 NSaved=   3.
 NSaved= 3 IEnMin= 3 EnMin= -4103.38164587681     IErMin= 3 ErrMin= 2.38D-02
 ErrMax= 2.38D-02 EMaxC= 1.00D-01 BMatC= 3.71D-01 BMatP= 9.31D-01
 IDIUse=3 WtCom= 7.62D-01 WtEn= 2.38D-01
 Coeff-Com: -0.541D+00 0.115D+01 0.394D+00
 Coeff-En:   0.000D+00 0.000D+00 0.100D+01
 Coeff:     -0.412D+00 0.874D+00 0.538D+00
 Gap=     0.083 Goal=   None    Shift=    0.000
 RMSDP=7.33D-04 MaxDP=8.04D-02 DE=-1.88D+00 OVMax= 1.69D-01

 Cycle   4  Pass 0  IDiag  1:
 RMSU=  3.68D-04    CP:  9.19D-01  2.26D+00  4.02D-01
 E= -4103.48802515351     Delta-E=       -0.106379276698 Rises=F Damp=F
 DIIS: error= 1.78D-02 at cycle   4 NSaved=   4.
 NSaved= 4 IEnMin= 4 EnMin= -4103.48802515351     IErMin= 4 ErrMin= 1.78D-02
 ErrMax= 1.78D-02 EMaxC= 1.00D-01 BMatC= 2.94D-01 BMatP= 3.71D-01
 IDIUse=3 WtCom= 8.22D-01 WtEn= 1.78D-01
 Coeff-Com: -0.505D-01 0.175D+00 0.439D+00 0.436D+00
 Coeff-En:   0.000D+00 0.000D+00 0.451D+00 0.549D+00
 Coeff:     -0.415D-01 0.144D+00 0.441D+00 0.456D+00
 Gap=     0.073 Goal=   None    Shift=    0.000
 RMSDP=3.46D-04 MaxDP=4.25D-02 DE=-1.06D-01 OVMax= 8.02D-02

 Cycle   5  Pass 0  IDiag  1:
 RMSU=  7.53D-05    CP:  9.20D-01  2.15D+00  6.45D-01  5.31D-01
 E= -4103.81784107353     Delta-E=       -0.329815920017 Rises=F Damp=F
 DIIS: error= 1.07D-03 at cycle   5 NSaved=   5.
 NSaved= 5 IEnMin= 5 EnMin= -4103.81784107353     IErMin= 5 ErrMin= 1.07D-03
 ErrMax= 1.07D-03 EMaxC= 1.00D-01 BMatC= 3.70D-03 BMatP= 2.94D-01
 IDIUse=3 WtCom= 9.89D-01 WtEn= 1.07D-02
 Coeff-Com:  0.183D-01-0.132D-01 0.171D+00 0.213D+00 0.611D+00
 Coeff-En:   0.000D+00 0.000D+00 0.000D+00 0.000D+00 0.100D+01
 Coeff:      0.181D-01-0.130D-01 0.169D+00 0.211D+00 0.615D+00
 Gap=     0.072 Goal=   None    Shift=    0.000
 RMSDP=6.99D-05 MaxDP=9.59D-03 DE=-3.30D-01 OVMax= 1.59D-02

 Cycle   6  Pass 0  IDiag  1:
 RMSU=  3.36D-05    CP:  9.20D-01  2.16D+00  6.62D-01  5.33D-01  5.44D-01
 E= -4103.82069534161     Delta-E=       -0.002854268081 Rises=F Damp=F
 DIIS: error= 1.24D-03 at cycle   6 NSaved=   6.
 NSaved= 6 IEnMin= 6 EnMin= -4103.82069534161     IErMin= 5 ErrMin= 1.07D-03
 ErrMax= 1.24D-03 EMaxC= 1.00D-01 BMatC= 8.79D-04 BMatP= 3.70D-03
 IDIUse=3 WtCom= 9.89D-01 WtEn= 1.07D-02
 Coeff-Com:  0.122D-01-0.194D-01 0.481D-01 0.704D-01 0.367D+00 0.522D+00
 Coeff-En:   0.000D+00 0.000D+00 0.000D+00 0.000D+00 0.201D+00 0.799D+00
 Coeff:      0.121D-01-0.192D-01 0.476D-01 0.696D-01 0.365D+00 0.525D+00
 Gap=     0.072 Goal=   None    Shift=    0.000
 RMSDP=3.08D-05 MaxDP=2.84D-03 DE=-2.85D-03 OVMax= 1.58D-02

 Cycle   7  Pass 0  IDiag  1:
 RMSU=  1.36D-05    CP:  9.20D-01  2.16D+00  6.58D-01  5.40D-01  6.42D-01
                    CP:  5.59D-01
 E= -4103.82147544226     Delta-E=       -0.000780100647 Rises=F Damp=F
 DIIS: error= 3.82D-04 at cycle   7 NSaved=   7.
 NSaved= 7 IEnMin= 7 EnMin= -4103.82147544226     IErMin= 7 ErrMin= 3.82D-04
 ErrMax= 3.82D-04 EMaxC= 1.00D-01 BMatC= 1.99D-04 BMatP= 8.79D-04
 IDIUse=3 WtCom= 9.96D-01 WtEn= 3.82D-03
 Coeff-Com:  0.427D-02-0.811D-02 0.122D-01 0.213D-01 0.172D+00 0.361D+00
 Coeff-Com:  0.438D+00
 Coeff-En:   0.000D+00 0.000D+00 0.000D+00 0.000D+00 0.000D+00 0.194D+00
 Coeff-En:   0.806D+00
 Coeff:      0.425D-02-0.808D-02 0.121D-01 0.212D-01 0.172D+00 0.360D+00
 Coeff:      0.439D+00
 Gap=     0.072 Goal=   None    Shift=    0.000
 RMSDP=1.49D-05 MaxDP=2.48D-03 DE=-7.80D-04 OVMax= 1.17D-02

 Cycle   8  Pass 0  IDiag  1:
 RMSU=  5.78D-06    CP:  9.20D-01  2.16D+00  6.59D-01  5.41D-01  6.51D-01
                    CP:  6.31D-01  3.84D-01
 E= -4103.82165394601     Delta-E=       -0.000178503749 Rises=F Damp=F
 DIIS: error= 2.13D-04 at cycle   8 NSaved=   8.
 NSaved= 8 IEnMin= 8 EnMin= -4103.82165394601     IErMin= 8 ErrMin= 2.13D-04
 ErrMax= 2.13D-04 EMaxC= 1.00D-01 BMatC= 4.52D-05 BMatP= 1.99D-04
 IDIUse=3 WtCom= 9.98D-01 WtEn= 2.13D-03
 Coeff-Com:  0.104D-02-0.252D-02 0.270D-02 0.640D-02 0.800D-01 0.205D+00
 Coeff-Com:  0.336D+00 0.371D+00
 Coeff-En:   0.000D+00 0.000D+00 0.000D+00 0.000D+00 0.000D+00 0.000D+00
 Coeff-En:   0.215D+00 0.785D+00
 Coeff:      0.104D-02-0.251D-02 0.269D-02 0.638D-02 0.798D-01 0.205D+00
 Coeff:      0.335D+00 0.372D+00
 Gap=     0.072 Goal=   None    Shift=    0.000
 RMSDP=6.39D-06 MaxDP=9.70D-04 DE=-1.79D-04 OVMax= 5.11D-03

 Initial convergence to 1.0D-05 achieved.  Increase integral accuracy.
 Cycle   9  Pass 1  IDiag  1:
 E= -4103.82066254002     Delta-E=        0.000991405985 Rises=F Damp=F
 DIIS: error= 2.81D-04 at cycle   1 NSaved=   1.
 NSaved= 1 IEnMin= 1 EnMin= -4103.82066254002     IErMin= 1 ErrMin= 2.81D-04
 ErrMax= 2.81D-04 EMaxC= 1.00D-01 BMatC= 1.85D-05 BMatP= 1.85D-05
 IDIUse=3 WtCom= 9.97D-01 WtEn= 2.81D-03
 Coeff-Com:  0.100D+01
 Coeff-En:   0.100D+01
 Coeff:      0.100D+01
 Gap=     0.072 Goal=   None    Shift=    0.000
 RMSDP=6.39D-06 MaxDP=9.70D-04 DE= 9.91D-04 OVMax= 3.52D-03

 Cycle  10  Pass 1  IDiag  1:
 RMSU=  6.13D-05    CP:  1.00D+00
 E= -4103.82065513567     Delta-E=        0.000007404349 Rises=F Damp=F
 DIIS: error= 1.33D-04 at cycle   2 NSaved=   2.
 NSaved= 2 IEnMin= 1 EnMin= -4103.82066254002     IErMin= 2 ErrMin= 1.33D-04
 ErrMax= 1.33D-04 EMaxC= 1.00D-01 BMatC= 2.03D-05 BMatP= 1.85D-05
 IDIUse=3 WtCom= 9.99D-01 WtEn= 1.33D-03
 Coeff-Com:  0.517D+00 0.483D+00
 Coeff-En:   0.613D+00 0.387D+00
 Coeff:      0.517D+00 0.483D+00
 Gap=     0.072 Goal=   None    Shift=    0.000
 RMSDP=6.57D-06 MaxDP=1.03D-03 DE= 7.40D-06 OVMax= 5.38D-03

 Cycle  11  Pass 1  IDiag  1:
 RMSU=  4.64D-06    CP:  1.00D+00  1.00D+00
 E= -4103.82065853990     Delta-E=       -0.000003404231 Rises=F Damp=F
 DIIS: error= 1.37D-04 at cycle   3 NSaved=   3.
 NSaved= 3 IEnMin= 1 EnMin= -4103.82066254002     IErMin= 2 ErrMin= 1.33D-04
 ErrMax= 1.37D-04 EMaxC= 1.00D-01 BMatC= 1.68D-05 BMatP= 1.85D-05
 IDIUse=3 WtCom= 9.99D-01 WtEn= 1.37D-03
 Coeff-Com:  0.517D-01 0.461D+00 0.487D+00
 Coeff-En:   0.000D+00 0.474D+00 0.526D+00
 Coeff:      0.517D-01 0.461D+00 0.487D+00
 Gap=     0.072 Goal=   None    Shift=    0.000
 RMSDP=3.73D-06 MaxDP=6.30D-04 DE=-3.40D-06 OVMax= 3.19D-03

 Cycle  12  Pass 1  IDiag  1:
 RMSU=  8.83D-07    CP:  1.00D+00  1.01D+00  4.73D-01
 E= -4103.82067779672     Delta-E=       -0.000019256819 Rises=F Damp=F
 DIIS: error= 3.14D-05 at cycle   4 NSaved=   4.
 NSaved= 4 IEnMin= 4 EnMin= -4103.82067779672     IErMin= 4 ErrMin= 3.14D-05
 ErrMax= 3.14D-05 EMaxC= 1.00D-01 BMatC= 1.36D-06 BMatP= 1.68D-05
 IDIUse=1 WtCom= 1.00D+00 WtEn= 0.00D+00
 Coeff-Com: -0.256D-02 0.285D+00 0.341D+00 0.376D+00
 Coeff:     -0.256D-02 0.285D+00 0.341D+00 0.376D+00
 Gap=     0.072 Goal=   None    Shift=    0.000
 RMSDP=8.77D-07 MaxDP=1.11D-04 DE=-1.93D-05 OVMax= 5.10D-04

 Cycle  13  Pass 1  IDiag  1:
 RMSU=  1.81D-07    CP:  1.00D+00  1.01D+00  5.21D-01  3.76D-01
 E= -4103.82067929204     Delta-E=       -0.000001495318 Rises=F Damp=F
 DIIS: error= 5.71D-06 at cycle   5 NSaved=   5.
 NSaved= 5 IEnMin= 5 EnMin= -4103.82067929204     IErMin= 5 ErrMin= 5.71D-06
 ErrMax= 5.71D-06 EMaxC= 1.00D-01 BMatC= 2.07D-08 BMatP= 1.36D-06
 IDIUse=1 WtCom= 1.00D+00 WtEn= 0.00D+00
 Coeff-Com: -0.275D-02 0.155D+00 0.187D+00 0.223D+00 0.438D+00
 Coeff:     -0.275D-02 0.155D+00 0.187D+00 0.223D+00 0.438D+00
 Gap=     0.072 Goal=   None    Shift=    0.000
 RMSDP=1.26D-07 MaxDP=1.39D-05 DE=-1.50D-06 OVMax= 3.80D-05

 Cycle  14  Pass 1  IDiag  1:
 RMSU=  5.58D-08    CP:  1.00D+00  1.01D+00  5.20D-01  3.99D-01  6.33D-01
 E= -4103.82067931559     Delta-E=       -0.000000023545 Rises=F Damp=F
 DIIS: error= 3.45D-07 at cycle   6 NSaved=   6.
 NSaved= 6 IEnMin= 6 EnMin= -4103.82067931559     IErMin= 6 ErrMin= 3.45D-07
 ErrMax= 3.45D-07 EMaxC= 1.00D-01 BMatC= 6.34D-10 BMatP= 2.07D-08
 IDIUse=1 WtCom= 1.00D+00 WtEn= 0.00D+00
 Coeff-Com: -0.100D-02 0.447D-01 0.549D-01 0.690D-01 0.197D+00 0.635D+00
 Coeff:     -0.100D-02 0.447D-01 0.549D-01 0.690D-01 0.197D+00 0.635D+00
 Gap=     0.072 Goal=   None    Shift=    0.000
 RMSDP=2.57D-08 MaxDP=3.83D-06 DE=-2.35D-08 OVMax= 1.02D-05

 Cycle  15  Pass 1  IDiag  1:
 RMSU=  1.64D-08    CP:  1.00D+00  1.01D+00  5.21D-01  4.00D-01  6.50D-01
                    CP:  8.88D-01
 E= -4103.82067931575     Delta-E=       -0.000000000167 Rises=F Damp=F
 DIIS: error= 4.83D-07 at cycle   7 NSaved=   7.
 NSaved= 7 IEnMin= 7 EnMin= -4103.82067931575     IErMin= 6 ErrMin= 3.45D-07
 ErrMax= 4.83D-07 EMaxC= 1.00D-01 BMatC= 1.82D-10 BMatP= 6.34D-10
 IDIUse=1 WtCom= 1.00D+00 WtEn= 0.00D+00
 Coeff-Com: -0.442D-03 0.177D-01 0.220D-01 0.284D-01 0.943D-01 0.409D+00
 Coeff-Com:  0.429D+00
 Coeff:     -0.442D-03 0.177D-01 0.220D-01 0.284D-01 0.943D-01 0.409D+00
 Coeff:      0.429D+00
 Gap=     0.072 Goal=   None    Shift=    0.000
 RMSDP=1.37D-08 MaxDP=1.71D-06 DE=-1.67D-10 OVMax= 7.25D-06

 Cycle  16  Pass 1  IDiag  1:
 RMSU=  7.24D-09    CP:  1.00D+00  1.01D+00  5.20D-01  4.00D-01  6.61D-01
                    CP:  8.94D-01  6.35D-01
 E= -4103.82067931596     Delta-E=       -0.000000000204 Rises=F Damp=F
 DIIS: error= 1.89D-07 at cycle   8 NSaved=   8.
 NSaved= 8 IEnMin= 8 EnMin= -4103.82067931596     IErMin= 8 ErrMin= 1.89D-07
 ErrMax= 1.89D-07 EMaxC= 1.00D-01 BMatC= 4.79D-11 BMatP= 1.82D-10
 IDIUse=1 WtCom= 1.00D+00 WtEn= 0.00D+00
 Coeff-Com: -0.569D-04 0.814D-03 0.120D-02 0.209D-02 0.180D-01 0.138D+00
 Coeff-Com:  0.336D+00 0.504D+00
 Coeff:     -0.569D-04 0.814D-03 0.120D-02 0.209D-02 0.180D-01 0.138D+00
 Coeff:      0.336D+00 0.504D+00
 Gap=     0.072 Goal=   None    Shift=    0.000
 RMSDP=5.93D-09 MaxDP=7.85D-07 DE=-2.04D-10 OVMax= 3.09D-06

 SCF Done:  E(RB3LYP) =  -4103.82067932     A.U. after   16 cycles
             Convg  =    0.5934D-08             -V/T =  2.0036
 KE= 4.089215663096D+03 PE=-3.424569109394D+04 EE= 1.372273783819D+04
 Leave Link  502 at Thu Jan  5 21:42:29 2012, MaxMem= 1073741824 cpu:    6019.9
 (Enter /apps/gaussian/g09/g09/l801.exe)
 ExpMin= 7.78D-02 ExpMax= 1.61D+04 ExpMxC= 2.43D+03 IAcc=3 IRadAn=         5 AccDes= 0.00D+00
 HarFok:  IExCor=  205 AccDes= 0.00D+00 IRadAn=         5 IDoV=-2
 ScaDFX=  1.000000  1.000000  1.000000  1.000000
 Largest valence mixing into a core orbital is  1.38D-04
 Largest core mixing into a valence orbital is  4.42D-05
 Range of M.O.s used for correlation:    97  1636
 NBasis=  1636 NAE=   298 NBE=   298 NFC=    96 NFV=     0
 NROrb=   1540 NOA=   202 NOB=   202 NVA=  1338 NVB=  1338

 **** Warning!!: The largest alpha MO coefficient is  0.15384354D+02


 **** Warning!!: The smallest alpha delta epsilon is  0.71656570D-01

 Leave Link  801 at Thu Jan  5 21:42:31 2012, MaxMem= 1073741824 cpu:      15.2
 (Enter /apps/gaussian/g09/g09/l914.exe)
 RHF ground state
 MDV=  1073741824 DFT=T DoStab=F Mixed=T DoRPA=T DoScal=F NonHer=T
 Would need an additional************ words for in-memory AO integral storage.
 Making orbital integer symmetry assigments:
 Orbital symmetries:
       Occupied  (A) (A) (A) (A) (A) (A) (A) (A) (A) (A) (A) (A)
                 (A) (A) (A) (A) (A) (A) (A) (A) (A) (A) (A) (A)
                 (A) (A) (A) (A) (A) (A) (A) (A) (A) (A) (A) (A)
                 (A) (A) (A) (A) (A) (A) (A) (A) (A) (A) (A) (A)
                 (A) (A) (A) (A) (A) (A) (A) (A) (A) (A) (A) (A)
                 (A) (A) (A) (A) (A) (A) (A) (A) (A) (A) (A) (A)
                 (A) (A) (A) (A) (A) (A) (A) (A) (A) (A) (A) (A)
                 (A) (A) (A) (A) (A) (A) (A) (A) (A) (A) (A) (A)
                 (A) (A) (A) (A) (A) (A) (A) (A) (A) (A) (A) (A)
                 (A) (A) (A) (A) (A) (A) (A) (A) (A) (A) (A) (A)
                 (A) (A) (A) (A) (A) (A) (A) (A) (A) (A) (A) (A)
                 (A) (A) (A) (A) (A) (A) (A) (A) (A) (A) (A) (A)
                 (A) (A) (A) (A) (A) (A) (A) (A) (A) (A) (A) (A)
                 (A) (A) (A) (A) (A) (A) (A) (A) (A) (A) (A) (A)
                 (A) (A) (A) (A) (A) (A) (A) (A) (A) (A) (A) (A)
                 (A) (A) (A) (A) (A) (A) (A) (A) (A) (A) (A) (A)
                 (A) (A) (A) (A) (A) (A) (A) (A) (A) (A) (A) (A)
                 (A) (A) (A) (A) (A) (A) (A) (A) (A) (A) (A) (A)
                 (A) (A) (A) (A) (A) (A) (A) (A) (A) (A) (A) (A)
                 (A) (A) (A) (A) (A) (A) (A) (A) (A) (A) (A) (A)
                 (A) (A) (A) (A) (A) (A) (A) (A) (A) (A) (A) (A)
                 (A) (A) (A) (A) (A) (A) (A) (A) (A) (A) (A) (A)
                 (A) (A) (A) (A) (A) (A) (A) (A) (A) (A) (A) (A)
                 (A) (A) (A) (A) (A) (A) (A) (A) (A) (A) (A) (A)
                 (A) (A) (A) (A) (A) (A) (A) (A) (A) (A)
       Virtual   (A) (A) (A) (A) (A) (A) (A) (A) (A) (A) (A) (A)
                 (A) (A) (A) (A) (A) (A) (A) (A) (A) (A) (A) (A)
                 (A) (A) (A) (A) (A) (A) (A) (A) (A) (A) (A) (A)
                 (A) (A) (A) (A) (A) (A) (A) (A) (A) (A) (A) (A)
                 (A) (A) (A) (A) (A) (A) (A) (A) (A) (A) (A) (A)
                 (A) (A) (A) (A) (A) (A) (A) (A) (A) (A) (A) (A)
                 (A) (A) (A) (A) (A) (A) (A) (A) (A) (A) (A) (A)
                 (A) (A) (A) (A) (A) (A) (A) (A) (A) (A) (A) (A)
                 (A) (A) (A) (A) (A) (A) (A) (A) (A) (A) (A) (A)
                 (A) (A) (A) (A) (A) (A) (A) (A) (A) (A) (A) (A)
                 (A) (A) (A) (A) (A) (A) (A) (A) (A) (A) (A) (A)
                 (A) (A) (A) (A) (A) (A) (A) (A) (A) (A) (A) (A)
                 (A) (A) (A) (A) (A) (A) (A) (A) (A) (A) (A) (A)
                 (A) (A) (A) (A) (A) (A) (A) (A) (A) (A) (A) (A)
                 (A) (A) (A) (A) (A) (A) (A) (A) (A) (A) (A) (A)
                 (A) (A) (A) (A) (A) (A) (A) (A) (A) (A) (A) (A)
                 (A) (A) (A) (A) (A) (A) (A) (A) (A) (A) (A) (A)
                 (A) (A) (A) (A) (A) (A) (A) (A) (A) (A) (A) (A)
                 (A) (A) (A) (A) (A) (A) (A) (A) (A) (A) (A) (A)
                 (A) (A) (A) (A) (A) (A) (A) (A) (A) (A) (A) (A)
                 (A) (A) (A) (A) (A) (A) (A) (A) (A) (A) (A) (A)
                 (A) (A) (A) (A) (A) (A) (A) (A) (A) (A) (A) (A)
                 (A) (A) (A) (A) (A) (A) (A) (A) (A) (A) (A) (A)
                 (A) (A) (A) (A) (A) (A) (A) (A) (A) (A) (A) (A)
                 (A) (A) (A) (A) (A) (A) (A) (A) (A) (A) (A) (A)
                 (A) (A) (A) (A) (A) (A) (A) (A) (A) (A) (A) (A)
                 (A) (A) (A) (A) (A) (A) (A) (A) (A) (A) (A) (A)
                 (A) (A) (A) (A) (A) (A) (A) (A) (A) (A) (A) (A)
                 (A) (A) (A) (A) (A) (A) (A) (A) (A) (A) (A) (A)
                 (A) (A) (A) (A) (A) (A) (A) (A) (A) (A) (A) (A)
                 (A) (A) (A) (A) (A) (A) (A) (A) (A) (A) (A) (A)
                 (A) (A) (A) (A) (A) (A) (A) (A) (A) (A) (A) (A)
                 (A) (A) (A) (A) (A) (A) (A) (A) (A) (A) (A) (A)
                 (A) (A) (A) (A) (A) (A) (A) (A) (A) (A) (A) (A)
                 (A) (A) (A) (A) (A) (A) (A) (A) (A) (A) (A) (A)
                 (A) (A) (A) (A) (A) (A) (A) (A) (A) (A) (A) (A)
                 (A) (A) (A) (A) (A) (A) (A) (A) (A) (A) (A) (A)
                 (A) (A) (A) (A) (A) (A) (A) (A) (A) (A) (A) (A)
                 (A) (A) (A) (A) (A) (A) (A) (A) (A) (A) (A) (A)
                 (A) (A) (A) (A) (A) (A) (A) (A) (A) (A) (A) (A)
                 (A) (A) (A) (A) (A) (A) (A) (A) (A) (A) (A) (A)
                 (A) (A) (A) (A) (A) (A) (A) (A) (A) (A) (A) (A)
                 (A) (A) (A) (A) (A) (A) (A) (A) (A) (A) (A) (A)
                 (A) (A) (A) (A) (A) (A) (A) (A) (A) (A) (A) (A)
                 (A) (A) (A) (A) (A) (A) (A) (A) (A) (A) (A) (A)
                 (A) (A) (A) (A) (A) (A) (A) (A) (A) (A) (A) (A)
                 (A) (A) (A) (A) (A) (A) (A) (A) (A) (A) (A) (A)
                 (A) (A) (A) (A) (A) (A) (A) (A) (A) (A) (A) (A)
                 (A) (A) (A) (A) (A) (A) (A) (A) (A) (A) (A) (A)
                 (A) (A) (A) (A) (A) (A) (A) (A) (A) (A) (A) (A)
                 (A) (A) (A) (A) (A) (A) (A) (A) (A) (A) (A) (A)
                 (A) (A) (A) (A) (A) (A) (A) (A) (A) (A) (A) (A)
                 (A) (A) (A) (A) (A) (A) (A) (A) (A) (A) (A) (A)
                 (A) (A) (A) (A) (A) (A) (A) (A) (A) (A) (A) (A)
                 (A) (A) (A) (A) (A) (A) (A) (A) (A) (A) (A) (A)
                 (A) (A) (A) (A) (A) (A) (A) (A) (A) (A) (A) (A)
                 (A) (A) (A) (A) (A) (A) (A) (A) (A) (A) (A) (A)
                 (A) (A) (A) (A) (A) (A) (A) (A) (A) (A) (A) (A)
                 (A) (A) (A) (A) (A) (A) (A) (A) (A) (A) (A) (A)
                 (A) (A) (A) (A) (A) (A) (A) (A) (A) (A) (A) (A)
                 (A) (A) (A) (A) (A) (A) (A) (A) (A) (A) (A) (A)
                 (A) (A) (A) (A) (A) (A) (A) (A) (A) (A) (A) (A)
                 (A) (A) (A) (A) (A) (A) (A) (A) (A) (A) (A) (A)
                 (A) (A) (A) (A) (A) (A) (A) (A) (A) (A) (A) (A)
                 (A) (A) (A) (A) (A) (A) (A) (A) (A) (A) (A) (A)
                 (A) (A) (A) (A) (A) (A) (A) (A) (A) (A) (A) (A)
                 (A) (A) (A) (A) (A) (A) (A) (A) (A) (A) (A) (A)
                 (A) (A) (A) (A) (A) (A) (A) (A) (A) (A) (A) (A)
                 (A) (A) (A) (A) (A) (A) (A) (A) (A) (A) (A) (A)
                 (A) (A) (A) (A) (A) (A) (A) (A) (A) (A) (A) (A)
                 (A) (A) (A) (A) (A) (A) (A) (A) (A) (A) (A) (A)
                 (A) (A) (A) (A) (A) (A) (A) (A) (A) (A) (A) (A)
                 (A) (A) (A) (A) (A) (A) (A) (A) (A) (A) (A) (A)
                 (A) (A) (A) (A) (A) (A) (A) (A) (A) (A) (A) (A)
                 (A) (A) (A) (A) (A) (A) (A) (A) (A) (A) (A) (A)
                 (A) (A) (A) (A) (A) (A) (A) (A) (A) (A) (A) (A)
                 (A) (A) (A) (A) (A) (A) (A) (A) (A) (A) (A) (A)
                 (A) (A) (A) (A) (A) (A) (A) (A) (A) (A) (A) (A)
                 (A) (A) (A) (A) (A) (A) (A) (A) (A) (A) (A) (A)
                 (A) (A) (A) (A) (A) (A) (A) (A) (A) (A) (A) (A)
                 (A) (A) (A) (A) (A) (A) (A) (A) (A) (A) (A) (A)
                 (A) (A) (A) (A) (A) (A) (A) (A) (A) (A) (A) (A)
                 (A) (A) (A) (A) (A) (A) (A) (A) (A) (A) (A) (A)
                 (A) (A) (A) (A) (A) (A) (A) (A) (A) (A) (A) (A)
                 (A) (A) (A) (A) (A) (A) (A) (A) (A) (A) (A) (A)
                 (A) (A) (A) (A) (A) (A) (A) (A) (A) (A) (A) (A)
                 (A) (A) (A) (A) (A) (A) (A) (A) (A) (A) (A) (A)
                 (A) (A) (A) (A) (A) (A) (A) (A) (A) (A) (A) (A)
                 (A) (A) (A) (A) (A) (A) (A) (A) (A) (A) (A) (A)
                 (A) (A) (A) (A) (A) (A) (A) (A) (A) (A) (A) (A)
                 (A) (A) (A) (A) (A) (A) (A) (A) (A) (A) (A) (A)
                 (A) (A) (A) (A) (A) (A) (A) (A) (A) (A) (A) (A)
                 (A) (A) (A) (A) (A) (A) (A) (A) (A) (A) (A) (A)
                 (A) (A) (A) (A) (A) (A) (A) (A) (A) (A) (A) (A)
                 (A) (A) (A) (A) (A) (A) (A) (A) (A) (A) (A) (A)
                 (A) (A) (A) (A) (A) (A) (A) (A) (A) (A) (A) (A)
                 (A) (A) (A) (A) (A) (A) (A) (A) (A) (A) (A) (A)
                 (A) (A) (A) (A) (A) (A) (A) (A) (A) (A) (A) (A)
                 (A) (A) (A) (A) (A) (A) (A) (A) (A) (A) (A) (A)
                 (A) (A) (A) (A) (A) (A) (A) (A) (A) (A) (A) (A)
                 (A) (A) (A) (A) (A) (A) (A) (A) (A) (A) (A) (A)
                 (A) (A) (A) (A) (A) (A) (A) (A) (A) (A) (A) (A)
                 (A) (A) (A) (A) (A) (A) (A) (A) (A) (A) (A) (A)
                 (A) (A) (A) (A) (A) (A) (A) (A) (A) (A) (A) (A)
                 (A) (A) (A) (A) (A) (A) (A) (A) (A) (A) (A) (A)
                 (A) (A) (A) (A) (A) (A) (A) (A) (A) (A) (A) (A)
                 (A) (A) (A) (A) (A) (A) (A) (A) (A) (A) (A) (A)
                 (A) (A) (A) (A) (A) (A) (A) (A) (A) (A) (A) (A)
                 (A) (A) (A) (A) (A) (A) (A) (A) (A) (A) (A) (A)
                 (A) (A) (A) (A) (A) (A) (A) (A) (A) (A) (A) (A)
                 (A) (A) (A) (A) (A) (A) (A) (A) (A) (A) (A) (A)
                 (A) (A) (A) (A) (A) (A)
   100 initial guesses have been made.
 Convergence on wavefunction:    0.001000000000000
 Davidson Disk Diagonalization:  ConvIn= 1.00D-03 SkipCon=T Conv= 1.00D-03.
 Max sub-space:   400 roots to seek:   100 dimension of matrix: 540552
 Iteration     1 Dimension   100 NMult   100
 Cannot handle 2e integral symmetry, ISym2E=1.
 CISAX:  IP=  8 NPass=   5 NMax=    20.
 CISAX will form    20 AO SS matrices at one time.
 NMat=    20 NSing=    20.
 FoFCou: FMM=T IPFlag=           0 FMFlag=      100000 FMFlg1=        2001
         NFxFlg=           0 DoJE=F BraDBF=F KetDBF=F FulRan=T
         Omega=  0.000000  0.000000  1.000000  0.000000  0.000000 ICntrl=       0 IOpCl=  0
         NMat0=   20 NMatS0=   20 NMatT0=    0 NMatD0=   20 NMtDS0=    0 NMtDT0=    0
         I1Cent=           0 NGrid=           0.
 Symmetry not used in FoFCou.
 FMM levels:  10  Number of levels for PrismC:   9
 NMat=    20 NSing=    20.
 NMat=    20 NSing=    20.
 NMat=    20 NSing=    20.
 NMat=    20 NSing=    20.
 Cannot handle 2e integral symmetry, ISym2E=1.
 CISAX:  IP=  8 NPass=   5 NMax=    20.
 CISAX will form    20 AO SS matrices at one time.
 NMat=    20 NSing=    20.
 NMat=    20 NSing=    20.
 NMat=    20 NSing=    20.
 NMat=    20 NSing=    20.
 NMat=    20 NSing=    20.
 New state      2 was old state      4
 New state      4 was old state      2
 New state      5 was old state      6
 New state      6 was old state      7
 New state      7 was old state      5
 New state      9 was old state     13
 New state     10 was old state     16
 New state     11 was old state     19
 New state     12 was old state     18
 New state     13 was old state      9
 New state     14 was old state     12
 New state     15 was old state     14
 New state     16 was old state     15
 New state     17 was old state     11
 New state     18 was old state     10
 No map to state     19
 No map to state     20
 New state     21 was old state     17
 New state     22 was old state     20
 New state     24 was old state     22
 No map to state     25
 Excitation Energies [eV] at current iteration:
 Root      1 :     1.776158937445227
 Root      2 :     1.778269841316531
 Root      3 :     2.210971040214656
 Root      4 :     2.224070695926522
 Root      5 :     2.803192028031831
 Root      6 :     2.803868274321339
 Root      7 :     3.087417153610493
 Root      8 :     3.088757640868684
 Root      9 :     3.214366116925753
 Root     10 :     3.215514477262869
 Root     11 :     3.253909885484276
 Root     12 :     3.254144734696901
 Root     13 :     3.488434945641695
 Root     14 :     3.491273277917303
 Root     15 :     3.524770293307048
 Root     16 :     3.534074901287797
 Root     17 :     3.559349435778155
 Root     18 :     3.559876290763185
 Root     19 :     3.605936252688851
 Root     20 :     3.608392508883391
 Root     21 :     3.643668038278236
 Root     22 :     3.645123181943038
 Root     23 :     3.740719181925840
 Root     24 :     3.745329929266562
 Root     25 :     3.878708293919959
 Iteration     2 Dimension   150 NMult   150
 Cannot handle 2e integral symmetry, ISym2E=1.
 CISAX:  IP=  8 NPass=   3 NMax=    17.
 CISAX will form    17 AO SS matrices at one time.
 NMat=    17 NSing=    17.
 NMat=    17 NSing=    17.
 NMat=    16 NSing=    16.
[...]
 Alpha virt. eigenvalues --    2.37500   2.38016   2.38025   2.38491   2.38531
 Alpha virt. eigenvalues --    2.39877   2.42183   2.42240   2.42553   2.42556
 Alpha virt. eigenvalues --    2.43637   2.43693   2.43731   2.43939   2.43975
 Alpha virt. eigenvalues --    2.44105   2.44687   2.44734   2.45409   2.45412
 Alpha virt. eigenvalues --    2.46813   2.46817   2.47276   2.47324   2.47822
 Alpha virt. eigenvalues --    2.47838   2.48043   2.48143   2.49302   2.49313
 Alpha virt. eigenvalues --    2.49365   2.49420   2.49603   2.49651   2.49876
 Alpha virt. eigenvalues --    2.49900   2.50003   2.50019   2.51049   2.51049
 Alpha virt. eigenvalues --    2.51088   2.51109   2.51669   2.51678   2.52718
 Alpha virt. eigenvalues --    2.52729   2.52956   2.52966   2.53194   2.53234
 Alpha virt. eigenvalues --    2.53433   2.53442   2.53515   2.53546   2.54106
 Alpha virt. eigenvalues --    2.54180   2.54233   2.54335   2.54397   2.54521
 Alpha virt. eigenvalues --    2.54631   2.54713   2.56661   2.56680   2.58325
 Alpha virt. eigenvalues --    2.58329   2.58807   2.58816   2.59212   2.59217
 Alpha virt. eigenvalues --    2.60372   2.60417   2.60653   2.60659   2.61148
 Alpha virt. eigenvalues --    2.61261   2.61851   2.61900   2.62455   2.62464
 Alpha virt. eigenvalues --    2.63104   2.63122   2.64898   2.64949   2.65611
 Alpha virt. eigenvalues --    2.65622   2.66957   2.66962   2.67236   2.67247
 Alpha virt. eigenvalues --    2.67501   2.67556   2.67948   2.68000   2.68077
 Alpha virt. eigenvalues --    2.68166   2.68254   2.68313   2.68429   2.68819
 Alpha virt. eigenvalues --    2.68855   2.69005   2.69265   2.69577   2.69993
 Alpha virt. eigenvalues --    2.70157   2.73819   2.73831   2.74543   2.74742
 Alpha virt. eigenvalues --    2.74941   2.75303   2.75359   2.75418   2.75463
 Alpha virt. eigenvalues --    2.75601   2.75680   2.75873   2.75955   2.76000
 Alpha virt. eigenvalues --    2.76034   2.76165   2.76424   2.76673   2.77067
 Alpha virt. eigenvalues --    2.77082   2.78374   2.78415   2.78857   2.78902
 Alpha virt. eigenvalues --    2.79009   2.79039   2.80360   2.80370   2.81037
 Alpha virt. eigenvalues --    2.81040   2.81792   2.81805   2.82372   2.82382
 Alpha virt. eigenvalues --    2.82680   2.82695   2.82885   2.82948   2.84459
 Alpha virt. eigenvalues --    2.84486   2.85056   2.85086   2.85207   2.85234
 Alpha virt. eigenvalues --    2.85759   2.85783   2.87201   2.87232   2.87570
 Alpha virt. eigenvalues --    2.87688   2.87733   2.87798   2.87809   2.88033
 Alpha virt. eigenvalues --    2.88248   2.88390   2.90168   2.90176   2.90377
 Alpha virt. eigenvalues --    2.90381   2.90528   2.90528   2.91639   2.91644
 Alpha virt. eigenvalues --    2.91870   2.91880   2.92924   2.92932   3.01838
 Alpha virt. eigenvalues --    3.01843   3.02304   3.02309   3.02995   3.03001
 Alpha virt. eigenvalues --    3.06617   3.06628   3.06819   3.06830   3.07456
 Alpha virt. eigenvalues --    3.07466   3.07935   3.07998   3.08200   3.08236
 Alpha virt. eigenvalues --    3.08897   3.08930   3.09260   3.09296   3.09458
 Alpha virt. eigenvalues --    3.09470   3.09754   3.09762   3.10573   3.10594
 Alpha virt. eigenvalues --    3.10602   3.10627   3.10732   3.10773   3.10859
 Alpha virt. eigenvalues --    3.10947   3.11242   3.11282   3.11643   3.11758
 Alpha virt. eigenvalues --    3.11855   3.12184   3.12391   3.12414   3.13843
 Alpha virt. eigenvalues --    3.13881   3.16947   3.16956   3.18559   3.18577
 Alpha virt. eigenvalues --    3.18625   3.18684   3.18792   3.18817   3.18861
 Alpha virt. eigenvalues --    3.19435   3.20663   3.20694   3.21175   3.21215
 Alpha virt. eigenvalues --    3.22438   3.22530   3.22592   3.22665   3.25479
 Alpha virt. eigenvalues --    3.25486   3.28529   3.28533   3.29401   3.29401
 Alpha virt. eigenvalues --    3.29855   3.29863   3.32751   3.32758   3.33389
 Alpha virt. eigenvalues --    3.33394   3.39659   3.39662   3.44568   3.44578
 Alpha virt. eigenvalues --    3.50390   3.50393   3.54284   3.54289   3.59288
 Alpha virt. eigenvalues --    3.59388   3.59566   3.60103   3.61138   3.61147
 Alpha virt. eigenvalues --    3.61553   3.61581   3.61700   3.61833   3.61834
 Alpha virt. eigenvalues --    3.61901   3.61909   3.62320   3.63383   3.63418
 Alpha virt. eigenvalues --    3.64015   3.64060   3.64263   3.64342   3.64459
 Alpha virt. eigenvalues --    3.64465   3.64675   3.65401   3.65713   3.65714
 Alpha virt. eigenvalues --    3.66028   3.66051   3.70410   3.70463   3.70476
 Alpha virt. eigenvalues --    3.70698   3.71457   3.71487   3.71502   3.71515
 Alpha virt. eigenvalues --    3.71649   3.71665   3.71858   3.72038   3.72101
 Alpha virt. eigenvalues --    3.72224   3.72259   3.72338   3.72464   3.72560
 Alpha virt. eigenvalues --    3.72686   3.72708   3.72744   3.72786   3.72830
 Alpha virt. eigenvalues --    3.72942   3.72977   3.73036   3.73147   3.73449
 Alpha virt. eigenvalues --    3.73758   3.73817   3.73899   3.73982   3.74335
 Alpha virt. eigenvalues --    3.74602   3.74611   3.75861   3.79102   3.79159
 Alpha virt. eigenvalues --    3.79250   3.79287   3.79402   3.79477   3.80033
 Alpha virt. eigenvalues --    3.81068   3.83433   3.83449   3.86589   3.86596
 Alpha virt. eigenvalues --    3.86809   3.86811   3.87222   3.87235   3.95112
 Alpha virt. eigenvalues --    3.95121   3.96634   3.96639   4.07655   4.07659
 Alpha virt. eigenvalues --    4.10719   4.10721   4.10925   4.10933   4.11687
 Alpha virt. eigenvalues --    4.11690   4.12165   4.12169   4.13743   4.13750
 Alpha virt. eigenvalues --    4.14400   4.14405   4.14561   4.14566   4.15000
 Alpha virt. eigenvalues --    4.15006   4.16889   4.16889   4.16921   4.16942
 Alpha virt. eigenvalues --    4.18543   4.18545   4.21531   4.21534   4.22067
 Alpha virt. eigenvalues --    4.22075   4.33619   4.33623   4.33883   4.33974
 Alpha virt. eigenvalues --    4.34779   4.35112   4.35984   4.36574   4.38542
 Alpha virt. eigenvalues --    4.38852   4.38916   4.38962   4.41075   4.41334
 Alpha virt. eigenvalues --    4.44924   4.45051   4.47822   4.47860   4.47928
 Alpha virt. eigenvalues --    4.48058   4.48592   4.49096   4.49425   4.49492
 Alpha virt. eigenvalues --    4.50600   4.50636   4.51011   4.51022   4.56973
 Alpha virt. eigenvalues --    4.57157   4.57303   4.57987   4.58351   4.58560
 Alpha virt. eigenvalues --    4.58915   4.59221   4.60256   4.60654   4.63057
 Alpha virt. eigenvalues --    4.63062   4.70883   4.71475   4.71655   4.72247
 Alpha virt. eigenvalues --    4.77797   4.77825   4.85789   4.85796   4.95932
 Alpha virt. eigenvalues --    4.95937   5.09522   5.09527
          Condensed to atoms (all electrons):
 Mulliken atomic charges:
              1
     1  Si   0.558537
     2  Si   0.566327
     3  C   -0.072413
     4  C    0.111756
     5  C   -0.167477
     6  H    0.063404
     7  C    0.106478
     8  C   -0.082060
     9  H    0.056733
    10  C   -0.063724
    11  H    0.060124
    12  C   -0.062369
    13  H    0.059977
    14  C   -0.082631
    15  H    0.057500
    16  C    0.103955
    17  C   -0.169075
    18  H    0.064222
    19  C    0.113587
    20  C   -0.073791
    21  C    0.111262
    22  C   -0.163405
    23  H    0.063416
    24  C    0.107557
    25  C   -0.086448
    26  H    0.057127
    27  C   -0.064351
    28  H    0.059682
    29  C   -0.061663
    30  H    0.059769
    31  C   -0.086104
    32  H    0.058801
    33  C    0.091882
    34  C   -0.150037
    35  H    0.066036
    36  C    0.098996
    37  C    0.356236
    38  C   -0.566114
    39  C   -0.519591
    40  H    0.127619
    41  H    0.119093
    42  H    0.129810
    43  C   -0.520996
    44  H    0.129224
    45  H    0.120258
    46  H    0.127688
    47  C   -0.187558
    48  C   -0.293580
    49  H    0.102082
    50  H    0.102496
    51  H    0.095732
    52  C   -0.295320
    53  H    0.115728
    54  H    0.102161
    55  H    0.089814
    56  C   -0.295019
    57  H    0.090341
    58  H    0.101121
    59  H    0.114434
    60  C    0.375425
    61  C   -0.584713
    62  C   -0.519397
    63  H    0.123483
    64  H    0.118896
    65  H    0.129424
    66  C   -0.522802
    67  H    0.131030
    68  H    0.122066
    69  H    0.126313
    70  C   -0.188241
    71  C   -0.295520
    72  H    0.115199
    73  H    0.103740
    74  H    0.093013
    75  C   -0.298367
    76  H    0.107129
    77  H    0.101297
    78  H    0.095551
    79  C   -0.296395
    80  H    0.091796
    81  H    0.096861
    82  H    0.116891
    83  Si   0.558455
    84  Si   0.566365
    85  C   -0.072620
    86  C    0.111867
    87  C   -0.167469
    88  H    0.063401
    89  C    0.106488
    90  C   -0.082054
    91  H    0.056742
    92  C   -0.063676
    93  H    0.060138
    94  C   -0.062346
    95  H    0.059948
    96  C   -0.082519
    97  H    0.057418
    98  C    0.103950
    99  C   -0.168915
   100  H    0.064267
   101  C    0.113546
   102  C   -0.073596
   103  C    0.111111
   104  C   -0.163249
   105  H    0.063527
   106  C    0.107468
   107  C   -0.086411
   108  H    0.057340
   109  C   -0.064452
   110  H    0.059748
   111  C   -0.061630
   112  H    0.059562
   113  C   -0.086241
   114  H    0.058296
   115  C    0.092073
   116  C   -0.150198
   117  H    0.065648
   118  C    0.099173
   119  C    0.356347
   120  C   -0.566320
   121  C   -0.519639
   122  H    0.127651
   123  H    0.119716
   124  H    0.129929
   125  C   -0.521864
   126  H    0.129433
   127  H    0.121594
   128  H    0.127083
   129  C   -0.190056
   130  C   -0.295757
   131  H    0.107196
   132  H    0.101565
   133  H    0.096696
   134  C   -0.302476
   135  H    0.115504
   136  H    0.104043
   137  H    0.093704
   138  C   -0.295268
   139  H    0.090294
   140  H    0.101632
   141  H    0.114477
   142  C    0.375457
   143  C   -0.584767
   144  C   -0.519484
   145  H    0.123498
   146  H    0.118633
   147  H    0.128979
   148  C   -0.521446
   149  H    0.130233
   150  H    0.119785
   151  H    0.127525
   152  C   -0.185552
   153  C   -0.291263
   154  H    0.116070
   155  H    0.099063
   156  H    0.091444
   157  C   -0.293609
   158  H    0.102004
   159  H    0.101324
   160  H    0.096586
   161  C   -0.296442
   162  H    0.092126
   163  H    0.096492
   164  H    0.116787
 Sum of Mulliken atomic charges =   0.00000
 Mulliken charges with hydrogens summed into heavy atoms:
              1
     1  Si   0.558537
     2  Si   0.566327
     3  C   -0.072413
     4  C    0.111756
     5  C   -0.104073
     7  C    0.106478
     8  C   -0.025327
    10  C   -0.003600
    12  C   -0.002393
    14  C   -0.025131
    16  C    0.103955
    17  C   -0.104853
    19  C    0.113587
    20  C   -0.073791
    21  C    0.111262
    22  C   -0.099988
    24  C    0.107557
    25  C   -0.029320
    27  C   -0.004669
    29  C   -0.001894
    31  C   -0.027304
    33  C    0.091882
    34  C   -0.084001
    36  C    0.098996
    37  C    0.356236
    38  C   -0.566114
    39  C   -0.143069
    43  C   -0.143826
    47  C   -0.187558
    48  C    0.006730
    52  C    0.012383
    56  C    0.010877
    60  C    0.375425
    61  C   -0.584713
    62  C   -0.147594
    66  C   -0.143394
    70  C   -0.188241
    71  C    0.016433
    75  C    0.005610
    79  C    0.009153
    83  Si   0.558455
    84  Si   0.566365
    85  C   -0.072620
    86  C    0.111867
    87  C   -0.104068
    89  C    0.106488
    90  C   -0.025313
    92  C   -0.003538
    94  C   -0.002397
    96  C   -0.025101
    98  C    0.103950
    99  C   -0.104648
   101  C    0.113546
   102  C   -0.073596
   103  C    0.111111
   104  C   -0.099722
   106  C    0.107468
   107  C   -0.029071
   109  C   -0.004705
   111  C   -0.002068
   113  C   -0.027945
   115  C    0.092073
   116  C   -0.084549
   118  C    0.099173
   119  C    0.356347
   120  C   -0.566320
   121  C   -0.142343
   125  C   -0.143755
   129  C   -0.190056
   130  C    0.009700
   134  C    0.010775
   138  C    0.011134
   142  C    0.375457
   143  C   -0.584767
   144  C   -0.148375
   148  C   -0.143903
   152  C   -0.185552
   153  C    0.015314
   157  C    0.006306
   161  C    0.008963
 Sum of Mulliken charges with hydrogens summed into heavy atoms =   0.00000
 Electronic spatial extent (au):  <R**2>=         205813.3102
 Charge=              0.0000 electrons
 Dipole moment (field-independent basis, Debye):
    X=             -0.0108    Y=             -0.8958    Z=              1.0390  Tot=              1.3718
 Quadrupole moment (field-independent basis, Debye-Ang):
   XX=           -444.6477   YY=           -446.6341   ZZ=           -503.2866
   XY=             -2.8102   XZ=            -16.5701   YZ=              1.0653
 Traceless Quadrupole moment (field-independent basis, Debye-Ang):
   XX=             20.2085   YY=             18.2220   ZZ=            -38.4305
   XY=             -2.8102   XZ=            -16.5701   YZ=              1.0653
 Octapole moment (field-independent basis, Debye-Ang**2):
  XXX=              5.7688  YYY=             64.1851  ZZZ=             46.0446  XYY=              9.6410
  XXY=            -91.4922  XXZ=             95.4406  XZZ=              4.0667  YZZ=            -10.8993
  YYZ=            -10.7477  XYZ=            -18.9733
 Hexadecapole moment (field-independent basis, Debye-Ang**3):
 XXXX=        -229677.1407 YYYY=         -24535.5655 ZZZZ=          -6071.5574 XXXY=           -669.9776
 XXXZ=          -3593.8510 YYYX=            448.5916 YYYZ=            -97.5588 ZZZX=           -284.2053
 ZZZY=             33.5012 XXYY=         -42790.6143 XXZZ=         -43604.1037 YYZZ=          -5843.6640
 XXYZ=             70.0647 YYXZ=            -43.9184 ZZXY=           -116.2014
 N-N= 1.232991691334D+04 E-N=-3.424569107003D+04  KE= 4.089215663096D+03
 Leave Link  601 at Fri Jan  6 06:10:35 2012, MaxMem= 1073741824 cpu:      10.3
 (Enter /apps/gaussian/g09/g09/l9999.exe)
 1\1\GINC-CX1-1-9-3\SP\RTD-B3LYP-FC\6-31G(d,p)\C76H84Si4\JMF02\06-Jan-2
 012\0\\#p scf=verytight b3lyp/6-31g(d,p) td(singlets,nstates=25)\\CSD 
 ENTRY k01094\\0,1\Si,0,7.67676375,4.94253357,2.1246362\Si,0,4.28161931
 ,9.81253748,11.99769136\C,0,5.88830855,5.96626779,6.07011022\C,0,6.090
 46715,5.24232125,7.26812329\C,0,6.62880609,3.9407062,7.27217704\H,0,6.
 87149525,3.54304041,6.44484343\C,0,6.81589231,3.22361801,8.43885663\C,
 0,7.35926412,1.90045493,8.45262392\H,0,7.59858004,1.48604649,7.6323120
 6\C,0,7.54024973,1.2263429,9.61402789\H,0,7.90027364,0.34684983,9.5974
 2299\C,0,7.19697251,1.82693137,10.85694954\H,0,7.33392581,1.34816304,1
 1.66574042\C,0,6.67611362,3.0741238,10.89544724\H,0,6.44428938,3.45591
 568,11.73444157\C,0,6.46769297,3.83280853,9.69764579\C,0,5.95394957,5.
 11585633,9.71254767\H,0,5.73472535,5.51543945,10.54618372\C,0,5.744888
 05,5.8486812,8.53039414\C,0,5.24618382,7.18179101,8.55055133\C,0,5.007
 98494,7.89329127,7.34627824\C,0,4.52458448,9.21206834,7.33206442\H,0,4
 .33632148,9.63799685,8.15950986\C,0,4.31254682,9.91646084,6.15488506\C
 ,0,3.87262532,11.27181772,6.13855037\H,0,3.73088329,11.72706803,6.9599
 9322\C,0,3.65060121,11.92652525,4.96812936\H,0,3.36908454,12.83304113,
 4.97950156\C,0,3.83999479,11.25774357,3.72181514\H,0,3.65971079,11.715
 30814,2.9094394\C,0,4.27263193,9.97908794,3.69052781\H,0,4.39687443,9.
 54989218,2.85173773\C,0,4.55024596,9.25348337,4.89847709\C,0,5.0401307
 6,7.95888586,4.89214092\H,0,5.20269426,7.52953526,4.05971304\C,0,5.305
 35385,7.25979106,6.08357669\C,0,6.3665247,5.44970565,4.81807473\C,0,6.
 83687335,5.1280959,3.74768634\C,0,9.51187655,5.09836176,2.3815887\H,0,
 9.72990297,6.01747311,2.64161138\H,0,9.97884889,4.87519537,1.54800931\
 H,0,9.79559418,4.48169378,3.08844859\C,0,7.2915254,3.27432175,1.393509
 85\H,0,7.53957247,2.57366073,2.03135684\H,0,7.79947538,3.15685183,0.56
 418384\H,0,6.33217668,3.21704703,1.20038905\C,0,7.0302756,6.33469594,1
 .02102575\C,0,7.64491082,6.20556194,-0.37887208\H,0,7.35521246,5.36196
 436,-0.78550582\H,0,8.62235029,6.21528429,-0.30781887\H,0,7.34879661,6
 .95484057,-0.93584956\C,0,5.50430625,6.2565946,0.90480301\H,0,5.104716
 54,6.34195577,1.79535875\H,0,5.25031207,5.39435065,0.51387037\H,0,5.18
 284169,6.98289614,0.33099066\C,0,7.41698613,7.70517882,1.60463832\H,0,
 7.04792623,8.41627832,1.04049978\H,0,8.39418619,7.78434877,1.63324187\
 H,0,7.05622182,7.78707157,2.51226914\C,0,4.98373256,7.86218979,9.78718
 986\C,0,4.74019744,8.54041352,10.76397756\C,0,2.56019481,10.3879449,11
 .59480925\H,0,2.53224991,10.71107022,10.66964218\H,0,2.3086769,11.1141
 043,12.20212241\H,0,1.93364454,9.64148342,11.69987599\C,0,4.29440537,9
 .08479763,13.70564722\H,0,3.71559593,8.29456471,13.72799833\H,0,3.9645
 7006,9.7499146,14.34639997\H,0,5.20951381,8.82620593,13.94410238\C,0,5
 .52525967,11.22465071,11.83927147\C,0,6.91715373,10.75601806,12.271933
 41\H,0,7.18793505,9.98876868,11.72614695\H,0,6.89477462,10.49250497,13
 .2162284\H,0,7.56054392,11.48525197,12.15225066\C,0,5.11022129,12.4009
 4172,12.73138559\H,0,5.05138975,12.10008422,13.66155204\H,0,4.23669607
 ,12.7390198,12.44181536\H,0,5.77668313,13.11601759,12.66037778\C,0,5.5
 9984975,11.71008171,10.37952284\H,0,6.23134275,12.45698023,10.31589737
 \H,0,4.71247854,12.00675451,10.08825219\H,0,5.90357448,10.97556075,9.8
 0711717\Si,0,9.09257,10.4099,17.6365\Si,0,5.69742,15.2799,27.5096\C,0,
 7.30411,11.4336,21.582\C,0,7.50627,10.7096,22.78\C,0,8.04461,9.40803,2
 2.784\H,0,8.2873,9.01036,21.9567\C,0,8.2317,8.69094,23.9507\C,0,8.7750
 7,7.36778,23.9645\H,0,9.01438,6.95337,23.1442\C,0,8.95605,6.69366,25.1
 259\H,0,9.31608,5.81417,25.1093\C,0,8.61278,7.29425,26.3688\H,0,8.7497
 3,6.81548,27.1776\C,0,8.09192,8.54145,26.4073\H,0,7.86009,8.92324,27.2
 463\C,0,7.8835,9.30013,25.2095\C,0,7.36975,10.5832,25.2244\H,0,7.15053
 ,10.9828,26.058\C,0,7.16069,11.316,24.0423\C,0,6.66199,12.6491,24.0624
 \C,0,6.42379,13.3606,22.8581\C,0,5.94039,14.6794,22.8439\H,0,5.75213,1
 5.1053,23.6714\C,0,5.72835,15.3838,21.6668\C,0,5.28843,16.7391,21.6504
 \H,0,5.14669,17.1944,22.4719\C,0,5.06641,17.3938,20.48\H,0,4.78489,18.
 3004,20.4914\C,0,5.2558,16.7251,19.2337\H,0,5.07551,17.1826,18.4213\C,
 0,5.68844,15.4464,19.2024\H,0,5.81268,15.0172,18.3636\C,0,5.96605,14.7
 208,20.4103\C,0,6.45593,13.4262,20.404\H,0,6.6185,12.9969,19.5716\C,0,
 6.72116,12.7271,21.5954\C,0,7.78233,10.917,20.3299\C,0,8.25268,10.5954
 ,19.2596\C,0,10.9277,10.5657,17.8935\H,0,11.1457,11.4848,18.1535\H,0,1
 1.3947,10.3425,17.0599\H,0,11.2114,9.94902,18.6003\C,0,8.70733,8.74164
 ,16.9054\H,0,8.95538,8.04098,17.5432\H,0,9.21528,8.62417,16.076\H,0,7.
 74798,8.68437,16.7123\C,0,8.44608,11.802,16.5329\C,0,9.06071,11.6729,1
 5.133\H,0,8.77102,10.8293,14.7264\H,0,10.0382,11.6826,15.204\H,0,8.764
 6,12.4222,14.576\C,0,6.92011,11.7239,16.4167\H,0,6.52052,11.8093,17.30
 72\H,0,6.66612,10.8617,16.0257\H,0,6.59865,12.4502,15.8429\C,0,8.83279
 ,13.1725,17.1165\H,0,8.46373,13.8836,16.5524\H,0,9.80999,13.2517,17.14
 51\H,0,8.47203,13.2544,18.0241\C,0,6.39954,13.3295,25.2991\C,0,6.156,1
 4.0077,26.2758\C,0,3.976,15.8553,27.1067\H,0,3.94805,16.1784,26.1815\H
 ,0,3.72448,16.5814,27.714\H,0,3.34945,15.1088,27.2117\C,0,5.71021,14.5
 521,29.2175\H,0,5.1314,13.7619,29.2399\H,0,5.38037,15.2172,29.8583\H,0
 ,6.62532,14.2935,29.456\C,0,6.94106,16.692,27.3511\C,0,8.33296,16.2233
 ,27.7838\H,0,8.60374,15.4561,27.238\H,0,8.31058,15.9598,28.7281\H,0,8.
 97635,16.9526,27.6641\C,0,6.52603,17.8683,28.2433\H,0,6.46719,17.5674,
 29.1734\H,0,5.6525,18.2063,27.9537\H,0,7.19249,18.5833,28.1722\C,0,7.0
 1565,17.1774,25.8914\H,0,7.64715,17.9243,25.8278\H,0,6.12828,17.4741,2
 5.6001\H,0,7.31938,16.4429,25.319\\Version=EM64L-G09RevA.02\State=1-A\
 HF=-4103.8206793\RMSD=5.934e-09\PG=C01 [X(C76H84Si4)]\\@


 VIRTUE IS LEARNED AT YOUR MOTHER'S KNEE,
 VICES ARE PICKED UP AT SOME OTHER JOINT.
 Job cpu time:  2 days 21 hours 13 minutes 51.0 seconds.
 File lengths (MBytes):  RWF=  13560 Int=      0 D2E=      0 Chk=   2224 Scr=      1
 Normal termination of Gaussian 09 at Fri Jan  6 06:11:05 2012.
